
 Working directory              : /scratch/st_ac135682.16602246/molpro.bsrrq3sqv6/
 Global scratch directory       : /scratch/st_ac135682.16602246/molpro.bsrrq3sqv6/
 Wavefunction directory         : /home/st/st_us-031401/st_ac135682/wfu/
 Main file repository           : /scratch/st_ac135682.16602246/molpro.bsrrq3sqv6/

 id        : uulm

 Nodes     nprocs
 n1637       12
 GA implementation: MPI file
 GA implementation (serial work in mppx): MPI file

 Using customized tuning parameters: mindgm=1; mindgv=20; mindgc=4; mindgr=1; noblas=0; minvec=7
 default implementation of scratch files=sf  


 Variables initialized (1042), CPU time= 0.01 sec
 GPRINT,ORBITALS
 NOSYM
 ANGSTROM
 GEOMETRY=initial.xyz
 Including file /lustre/home/st/st_us-031401/st_ac135682/codes/helpro/examples/molpro.2024.1/0.1_python/DF-PNO-LMP2/cc-pVDZ/active/00000/initial.xyz
 BASIS=cc-pVDZ
 {DF-HF}
 {PNO-LMP2;CORE}
 Commands initialized (847), CPU time= 0.02 sec, 718 directives.
 Default parameters read. Elapsed time= 0.17 sec

 Checking input...
 Passed
1


                                         ***  PROGRAM SYSTEM MOLPRO  ***
                                       Copyright, TTI GmbH Stuttgart, 2015
                                    Version 2024.1 linked Wed Jan 31 11:42:09 2024


 **********************************************************************************************************************************
 LABEL *                                                                                                                                                                 
  64 bit mpp version                                                                     DATE: 06-Mar-25          TIME: 23:28:24  
 **********************************************************************************************************************************

 SHA1:             675817fde4514a4a933b69e420913a90cee4ef91
 **********************************************************************************************************************************

 Memory per process:      4000 MW
 Total memory per node:  48000 MW

 GA preallocation disabled
 GA check disabled

 Variable memory set to 4000.0 MW


 ZSYMEL=NOSYM
 ZUNIT=ANG


 Geometry recognized as XYZ

 SETTING BASIS          =    CC-PVDZ


 Recomputing integrals since basis changed


 Using spherical harmonics

 Library entry O      S cc-pVDZ              selected for orbital group  1
 Library entry O      P cc-pVDZ              selected for orbital group  1
 Library entry O      D cc-pVDZ              selected for orbital group  1
 Library entry H      S cc-pVDZ              selected for orbital group  2
 Library entry H      P cc-pVDZ              selected for orbital group  2


 PROGRAM * SEWARD (Integral evaluation for generally contracted gaussian basis sets)     Author: Roland Lindh, 1990

 Geometry written to block  1 of record 700


 Point group  C1  



 ATOMIC COORDINATES

 NR  ATOM    CHARGE       X              Y              Z

   1  O       8.00   -0.000000813   -0.120336475    0.000000000
   2  H       1.00    1.459251824    0.954986911    0.000000000
   3  H       1.00   -1.459238936    0.954996416    0.000000000

 Bond lengths in Bohr (Angstrom)

 1-2  1.812660652  1-3  1.812654607
     ( 0.959218708)     ( 0.959215510)

 Bond angles

  2-1-3  107.22647671

 NUCLEAR CHARGE:                   10
 NUMBER OF PRIMITIVE AOS:          41
 NUMBER OF SYMMETRY AOS:           40
 NUMBER OF CONTRACTIONS:           24   (   24A   )
 NUMBER OF INNER CORE ORBITALS:     0   (    0A   )
 NUMBER OF OUTER CORE ORBITALS:     1   (    1A   )
 NUMBER OF VALENCE ORBITALS:        6   (    6A   )


 NUCLEAR REPULSION ENERGY    9.16946141

 EXTRA SYMMETRY OF AOS IN SYMMETRY 1:   1 1 1 1 1 2 1 1 2 1   1 2 1 2 1 1 1 1 2 1   1 1 1 2

 Eigenvalues of metric

         1 0.179E-01 0.439E-01 0.508E-01 0.992E-01 0.161E+00 0.171E+00 0.183E+00 0.221E+00


 OPERATOR DM      FOR CENTER  0  COORDINATES:    0.000000    0.000000    0.000000


 **********************************************************************************************************************************
 DATASETS  * FILE   NREC   LENGTH (MB)   RECORD NAMES
              1      18       28.64       500      610      700      900      950      970     1000      129      960     1100   
                                          VAR    BASINP    GEOM    SYMINP    ZMAT    AOBASIS   BASIS     P2S    ABASIS      S 
                                         1400     1410     1200     1210     1080     1600     1650     1700   
                                           T        V       H0       H01     AOSYM     SMH    MOLCAS    OPER   

 PROGRAMS   *        TOTAL       INT
 CPU TIMES  *         2.00      1.73
 REAL TIME  *         3.51 SEC
 DISK USED  *        28.98 MB (local),      347.80 MB (total)
 GA USED    *         0.00 MB       (max)       0.00 MB       (current)
 **********************************************************************************************************************************


 Program * Restricted Hartree-Fock

 Basis set VDZ/JKFIT generated.          Number of basis functions:   116 
 Coulomb and exchange fitting
 Thresholds for fitting:       THRAO_COUL= 1.0D-15    THRAO_EXCH= 1.0D-13    THRMO= 1.0D-12    THRPROD= 1.0D-12    THRASM= 1.0D-12
                               THR2HLF=    1.0D-12

 Basis set VDZ-JKFIT loaded. Number of basis functions: 116

 Orbital guess generated from atomic densities. Full valence occupancy:    7
 Using density fitting in orbital guess


 Initial occupancy:   5

 NELEC=   10   SYM=1   MS2= 0   THRE=1.0D-08   THRD=3.2D-06   THRG=3.2D-06  HFMA2=F  DIIS_START=2   DIIS_MAX=10   DIIS_INCORE=F

 Level shifts:    0.00 (CLOSED)    0.00 (OPEN)    0.30 (GAP_MIN)

 ITER           ETOT              DE          GRAD        DDIFF     DIIS  NEXP   TIME(IT)  TIME(TOT)  DIAG
   1      -75.98860367     -75.98860367     0.00D+00     0.24D+00     0     0       0.00      0.03    start
   2      -76.01786271      -0.02925903     0.22D-01     0.46D-01     1     0       0.01      0.04    diag
   3      -76.02619179      -0.00832908     0.11D-01     0.15D-01     2     0       0.00      0.04    diag
   4      -76.02640788      -0.00021609     0.13D-02     0.29D-02     3     0       0.00      0.04    diag
   5      -76.02642474      -0.00001686     0.34D-03     0.87D-03     4     0       0.01      0.05    diag
   6      -76.02642530      -0.00000056     0.54D-04     0.14D-03     5     0       0.00      0.05    diag
   7      -76.02642531      -0.00000001     0.80D-05     0.25D-04     6     0       0.00      0.05    diag
   8      -76.02642531      -0.00000000     0.82D-06     0.23D-05     7     0       0.01      0.06    fixocc
   9      -76.02642531      -0.00000000     0.17D-06     0.32D-06     0     0       0.00      0.06    diag

 Final occupancy:   5

 !RHF STATE 1.1 Energy                -76.026425312167
  RHF One-electron energy            -123.114361035440
  RHF Two-electron energy              37.918474315597
  RHF Kinetic energy                   75.977029082789
  RHF Nuclear energy                    9.169461407676
  RHF Virial quotient                  -1.000650146893

 !RHF STATE 1.1 Dipole moment           0.00000458     0.79333487    -0.00000000
 Dipole moment /Debye                   0.00001163     2.01645612    -0.00000000

 ELECTRON ORBITALS
 =================

  Orbital  Occupation    Energy    Cen Mu Typ  Coefficients
    1.1     2.00000   -20.54924     1  1  s    1.00040
    2.1     2.00000    -1.33354     1  2  s    0.87108    2  1  s    0.32569    3  1  s    0.32570
    3.1     2.00000    -0.70328     1  1  px   0.71138    2  1  s    0.56023    3  1  s   -0.56024
    4.1     2.00000    -0.56066     1  2  s   -0.28863    1  1  py   0.79951    2  1  s    0.34342    3  1  s    0.34341
    5.1     2.00000    -0.49199     1  1  pz   0.91920


 HOMO      5.1    -0.491990 =     -13.3877eV
 LUMO      6.1     0.185733 =       5.0541eV
 LUMO-HOMO         0.677723 =      18.4418eV

 Orbitals saved in record  2100.2


 **********************************************************************************************************************************
 DATASETS  * FILE   NREC   LENGTH (MB)   RECORD NAMES
              1      18       28.64       500      610      700      900      950      970     1000      129      960     1100   
                                          VAR    BASINP    GEOM    SYMINP    ZMAT    AOBASIS   BASIS     P2S    ABASIS      S 
                                         1400     1410     1200     1210     1080     1600     1650     1700   
                                           T        V       H0       H01     AOSYM     SMH    MOLCAS    OPER   

              2       4        0.42       700     1000      520     2100   
                                         GEOM     BASIS   MCVARS     RHF  

 PROGRAMS   *        TOTAL     DF-HF       INT
 CPU TIMES  *         2.07      0.07      1.73
 REAL TIME  *         3.67 SEC
 DISK USED  *        29.16 MB (local),      349.92 MB (total)
 SF USED    *         0.15 MB
 GA USED    *         0.00 MB       (max)       0.00 MB       (current)
 **********************************************************************************************************************************


 World communicator: rank 0, size 12
 Shared-memory communicator: rank 0, size 12
 Current node: rank 0, 1 node(s) in total

 Restoring occupations from record    2100.2

 Program * Closed-shell PNO-LMP2   Authors:   Q. Ma,  H.-J. Werner (2019)

 Number of core orbitals:           0
 Number of closed-shell orbitals:   5
 Number of open-shell orbitals:     0
 Number of valence orbitals:        5
 Number of external orbitals:      19

 Basis set CC-PVDZ/MP2FIT generated.     Number of basis functions:   84 

 DF_BASIS_MP2=CC-PVDZ/MP2FIT loaded.     Number of basis functions:    84

 iclose= 0  iweak= 0  rclose= 0.00  rweak= 0.00  thrclos= 1.0D-04  thrweak= 1.0D-05

 Using PAO pair domains

 PAO_pairdom=T  PAO_trans=T  LOCFIT= 1  LOCRI=F  EIJDIP=2

 Threshold for small PAO norm:    0.00D+00
 Threshold for redundancy check:  1.00D-07

 Molecular orbitals read from record     2100.2  Type=RHF/CANONICAL  
 Orbital energies read from record       2100.2  Type=RHF/CANONICAL  
 Fock matrix read from record            2100.2  Type=RHF/TOTAL  

 Checking core orbitals using projection, core_type=LARGE
 Threshold for active space selection:  0.30
 Number of target functions:              1

   Reference energy                   -76.026425312167



 Localizing   1 outer core orbitals using IBO(AO)
 Basis set MINAO-AUTO-PP generated.      Number of basis functions:   7 

 Polarized AO type:                A = (O Ot + (1-O)(1-Ot)) P12
 Orthogonalization method:         Symmetric (Loewdin)
 Localization functional:          L = sum[A,i] <i|n_A|i>^4 -> max

 Localization group 1:   1 orbitals, occupancy  2.000

 Summary of localized orbital composition:   [THRPRINT= 0.020]

   ORB  GRP  ORB.ENERGY      CENTERS/CHARGES
     1   1   -20.549241      O  1   1.996

 Localizing  4 valence orbitals using IBO

 Polarized AO type:                A = (O Ot + (1-O)(1-Ot)) P12
 Orthogonalization method:         Symmetric (Loewdin)
 Localization functional:          L = sum[A,i] <i|n_A|i>^4 -> max

 Localization group 1:   4 orbitals, occupancy  2.000
 Iterative localization: IB/PM,    4 iter; Final gradient 0.15E-09

 Summary of localized orbital composition:   [THRPRINT= 0.020]

   ORB  GRP  ORB.ENERGY      CENTERS/CHARGES
     1   1    -0.936357      O  1   1.354   H  3   0.646
     2   1    -0.936354      O  1   1.354   H  2   0.646
     3   1    -0.724764      O  1   2.000
     4   1    -0.491990      O  1   2.000

 CPU Time for LMOs:                   0.02 sec. Elapsed time:      0.05 sec. Memory usage:     0.00 MW (max).
 CPU Time for PAOs:                   0.00 sec. Elapsed time:      0.00 sec. Memory usage:     0.00 MW (max).

 PAO domains selected using IBO charges. Threshold:  0.2000

 Distance criteria for pair classes:       RCLOSE= 0.0  RWEAK= 0.0  RDIST= 0.0  RVDIST=-1.0
 Connectivity criteria for pair classes:   ICLOSE=   0  IWEAK=   0  IDIST=   0  IVDIST=  -1

 Augmenting orbital domains by 2 shell(s) of neighboring atoms.  Minimum radius:     5.00
 Augmenting DF domains by 2 shell(s) of neighboring atoms.  Minimum radius:          5.00

 Generating LMO domains. Method=COEFF  Threshold=1.00D-06

 Fitting truncated LMOs to exact LMOs

 Minimum LMO domain size:                 24
 Maximum LMO domain size:                 24
 Average LMO domain size:               24.0   (sparsity   0.00 %)

 CPU time for Fitlmo:                   0.00 sec.

 PAO orbital domain sizes:    24 (min),   24 (max),   24.0 (average)
 DF  orbital domain sizes:    84 (min),   84 (max),   84.0 (average)

 CPU Time for Domains:                0.00 sec. Elapsed time:      0.00 sec. Memory usage:     0.00 MW (max).

 Number of residual matrices on current processor:        1
 Number of amplitude matrices on current processor:       5

 Threshold for integral screening:    1.00D-12

 CPU time for create_blocked_AO basis:       0.00 sec,   24 functions,   3 blocks, threshold:  1.00D-08
 CPU time for create_blocked_DF basis:       0.00 sec,   84 functions,   4 blocks, threshold:  1.00D-08

 Fitting basis center dimensions: min=   14, max=   56, average= 28.00
 Fitting basis block dimensions:  min=  14, max=  35, average= 21.00

 CPU time for project LMOs:                                    0.00 sec.
 CPU time for project PAOs:                                    0.00 sec.

 Screening PAOs with threshold      1.00D-06

 Minimum PAO vector length:               24
 Maximum PAO vector length:               24
 Average PAO vector length:             24.0  (sparsity  0.00 %)

 CPU time for cut/fit of PAO vectors:                          0.00 sec.

 CPU Time for Block_basis:            0.00 sec. Elapsed time:      0.01 sec. Memory usage:     0.00 MW (max).
 CPU Time for Orbitals(tot):          0.04 sec. Elapsed time:      0.06 sec. Memory usage:     0.00 MW (max).
 CPU Time for PAO amplitudes:         0.00 sec. Elapsed time:      0.01 sec. Memory usage:     0.01 MW (max).

 Generating PAO(SC) domains

 Minimum PAO(SC) orbital domain size:         19
 Maximum PAO(SC) orbital domain size:         19
 Average PAO(SC) orbital domain size:       19.0

 CPU Time for OSV_generate:           0.00 sec. Elapsed time:      0.00 sec. Memory usage:     0.01 MW (max).

 Computing distant pair energies using multipole approximation up to order   3

 CPU time for computing multipole integrals (PAO/LMO):         0.02 sec
 CPU time for transforming integrals to OSV domains:           0.00 sec
 CPU time for distant pair energies:                           0.02 sec

 Distant pairs selected using the multipole order 3,  thrdist=1.0D-06  thrvdist=1.0D-07

 Semi-canonical distant pair energies, multipole-orders 1-3    0.00000000  0.00000000  0.00000000


 CPU Time for osv_mltp:               0.00 sec. Elapsed time:      0.02 sec. Memory usage:     0.01 MW (max).

 Number of strong pairs:                  15
 Number of close pairs:                    0
 Number of weak pairs:                     0
 Number of distant pairs:                  0  (treated by iterative multipole approximation, thrdist= 1.0D-06)
 Number of very distant pairs:             0  (treated by non-iterative multipole approximation, thrvdist= 1.0D-07)
 Total number of pairs in LMP2:           15

 Number of pairs per orbital (min, max, average):

 Strong pairs:               5     5     5.0
 Close pairs:                0     0     0.0
 Weak  pairs:                0     0     0.0
 Distant  pairs:             0     0     0.0
 Very distant pairs:         0     0     0.0

 CPU Time for Distribute_pairs:       0.01 sec. Elapsed time:      0.00 sec. Memory usage:     0.01 MW (max).

 Number of residual matrices on current processor:        1
 Number of amplitude matrices on current processor:       5

 Threshold for PAO redundancy check:   1.0D-07

 PC-PAO transformation matrices for singles saved

 Minimum PAO pair domain size:            24 (non orth)           19 (orth)
 Maximim PAO pair domain size:            24 (non orth)           19 (orth)
 Average PAO pair domain size:          24.0 (non orth)         19.0 (orth)
 Total number of PAO amplitudes:        8640

 CPU Time for PAO_pairdom:            0.00 sec. Elapsed time:      0.01 sec. Memory usage:     0.01 MW (max).
 CPU Time for PAO2                    0.00 sec. Elapsed time:      0.01 sec. Memory usage:     0.03 MW (max).

 Generating PNOs for LMP2 using PAO(SC) amplitudes

 Parameters: THRPNO_EN=0.9970, THRPNO_OCC=1.0D-08, KEEP_DIAG=T, THRPNO_DIAG=0.0D+00, THRDEG=1.0D-12

                                                PNO-LMP2     PNO_LCCSD
 Minimum PNO domain size:                            10            10
 Maximum PNO domain size:                            19            19
 Average PNO domain size:                          16.6          16.6
 Total number of PNOs:                              249           249
 Total number of PNO amplitudes:                   4239
 Local number of PNO amplitudes:                   1564
 Length of local PNO residual:                      361
 Length of local W-matrix:                          912

 Semi-canonical PAO correlation energy:     -0.19794569
 Semi-canonical PNO correlation energies:   -0.19794569   -0.19794569

 Semi-canonical domain correction:          -0.00000001   -0.00000001

 CPU Time for PNO_generate:           0.01 sec. Elapsed time:      0.01 sec. Memory usage:     0.01 MW (max).

 Local length of PNO overlap matrix for PNO-LMP2:       1311  Number of blocks:       4  number of pairs    15

 GA space for pno_smat:              0.01 MW (tot),              0.00 MW (min),              0.00 MW (max), using globally unique storage

 CPU Time for Distribute_W:           0.00 sec. Elapsed time:      0.01 sec. Memory usage:     0.02 MW (max).

 Number of buffered W-matrices:    18,  number of cache misses:     0, buffer length:      7344

 CPU Time for PNO_SMAT:               0.00 sec. Elapsed time:      0.00 sec. Memory usage:     0.01 MW (max).

 Denominator shift:          0.2000

 ITER.      SQ.NORM     CORR.ENERGY   TOTAL ENERGY   ENERGY CHANGE     VAR    DIIS
   1      0.04629745    -0.20200112   -76.22842644    -0.20200112  0.39D-03   1  1
   2      0.04879132    -0.20373920   -76.23016451    -0.00173807  0.15D-04   2  2
   3      0.04997299    -0.20379277   -76.23021808    -0.00005358  0.34D-06   3  3
   4      0.05005472    -0.20379380   -76.23021912    -0.00000103  0.10D-07   4  4
   5      0.05005406    -0.20379384   -76.23021915    -0.00000004  0.28D-09   5  5

  PNO-LMP2 domain correction           -0.000000005126
  PNO-LMP2 correlation energy          -0.203793845901
 !PNO-LMP2 total energy               -76.230219158067

 CPU Time for PNO-LMP2:               0.01 sec. Elapsed time:      0.01 sec. Memory usage:     0.01 MW (max).

                                         core-core      core-valence   valence-valence
               LMP2 corr. energy   -0.000428086522   -0.001906988626   -0.201458765627
          LMP2 corr. energy (SC)   -0.000428087152   -0.001906993121   -0.201458765627
           LMP2-F12 corr. energy   -0.000428086522   -0.001906988626   -0.201458765627
         Average PNO domain size             10.00             15.25             17.80

 PNO-LMP2 energy contributions
 =============================

                            PAO-LMP2(SC)     PNO-LMP2    PNO-SCS-LMP2   %(PNO/OSV)  AVDOM(PNO)
 Strong pair energy:        -0.19794569    -0.20379384    -0.19990615     102.95       16.6
 Close pair energy:          0.00000000     0.00000000     0.00000000       0.00        0.0
 Weak pair energy :          0.00000000     0.00000000     0.00000000       0.00        0.0
 Distant pair energy:        0.00000000     0.00000000     0.00000000       0.00        0.0
 Total correl. energy:      -0.19794569    -0.20379384    -0.19990615     102.95       16.6

 GA_PUT processed .07 MW globally, average elapsed time per process: .00 sec
 GA_GET processed .36 MW globally, average elapsed time per process: .00 sec

 REMARK: Memory usage printed may not be correct.
 CPU Time for PNO-LMP2(tot):          0.03 sec. Elapsed time:      0.08 sec. Memory usage:     0.03 MW (max).

 Shared file usage per process:      0.00 MB (local),            0.00 MB (max),              0.04 MB (tot)
 MPI file usage per process:         0.01 MB (local),            0.01 MB (max),              0.17 MB (tot)
 Max. disk usage per node:           0.22 MB (local),            0.22 MB (max),              0.22 MB (tot)

 Max. memory usage (overall):        0.03 MW (local),            0.03 MW (max),              0.30 MW (tot)
 Max. GA usage (overall):            0.00 MW (local),            0.00 MW (max),              0.00 MW (tot)
 Max. memory+GA usage:               0.03 MW (local),            0.03 MW (max),              0.32 MW (tot)


 **********************************************************************************************************************************
 DATASETS  * FILE   NREC   LENGTH (MB)   RECORD NAMES
              1      18       28.64       500      610      700      900      950      970     1000      129      960     1100   
                                          VAR    BASINP    GEOM    SYMINP    ZMAT    AOBASIS   BASIS     P2S    ABASIS      S 
                                         1400     1410     1200     1210     1080     1600     1650     1700   
                                           T        V       H0       H01     AOSYM     SMH    MOLCAS    OPER   

              2       4        0.42       700     1000      520     2100   
                                         GEOM     BASIS   MCVARS     RHF  

 PROGRAMS   *        TOTAL  PNO-LMP2     DF-HF       INT
 CPU TIMES  *         2.19      0.10      0.07      1.73
 REAL TIME  *         3.86 SEC
 DISK USED  *        29.16 MB (local),      349.93 MB (total)
 SF USED    *         0.22 MB
 GA USED    *         0.00 MB       (max)       0.00 MB       (current)
 **********************************************************************************************************************************

 PNO-LMP2/cc-pVDZ energy=    -76.230219158067

        PNO-LMP2           DF-HF
    -76.23021915    -76.02642531
 **********************************************************************************************************************************
 Molpro calculation terminated
