
 Working directory              : /scratch/st_ac135682.16602224/molpro.RQP9Qq9CLo/
 Global scratch directory       : /scratch/st_ac135682.16602224/molpro.RQP9Qq9CLo/
 Wavefunction directory         : /home/st/st_us-031401/st_ac135682/wfu/
 Main file repository           : /scratch/st_ac135682.16602224/molpro.RQP9Qq9CLo/

 id        : uulm

 Nodes     nprocs
 n1626       12
 GA implementation: MPI file
 GA implementation (serial work in mppx): MPI file

 Using customized tuning parameters: mindgm=1; mindgv=20; mindgc=4; mindgr=1; noblas=0; minvec=7
 default implementation of scratch files=sf  


 Variables initialized (1042), CPU time= 0.01 sec
 GPRINT,ORBITALS
 NOSYM
 ANGSTROM
 GEOMETRY=initial.xyz
 Including file /lustre/home/st/st_us-031401/st_ac135682/codes/helpro/examples/molpro.2024.1/0.1_python/DF-MP2/cc-pVDZ/active/00040/initial.xyz
 BASIS=cc-pVDZ
 {DF-HF}
 {DF-MP2;CORE}
 Commands initialized (847), CPU time= 0.02 sec, 718 directives.
 Default parameters read. Elapsed time= 0.19 sec

 Checking input...
 Passed
1


                                         ***  PROGRAM SYSTEM MOLPRO  ***
                                       Copyright, TTI GmbH Stuttgart, 2015
                                    Version 2024.1 linked Wed Jan 31 11:42:09 2024


 **********************************************************************************************************************************
 LABEL *                                                                                                                                                                 
  64 bit mpp version                                                                     DATE: 06-Mar-25          TIME: 23:28:18  
 **********************************************************************************************************************************

 SHA1:             675817fde4514a4a933b69e420913a90cee4ef91
 **********************************************************************************************************************************

 Memory per process:      4000 MW
 Total memory per node:  48000 MW

 GA preallocation disabled
 GA check disabled

 Variable memory set to 4000.0 MW


 ZSYMEL=NOSYM
 ZUNIT=ANG


 Geometry recognized as XYZ

 SETTING BASIS          =    CC-PVDZ


 Recomputing integrals since basis changed


 Using spherical harmonics

 Library entry O      S cc-pVDZ              selected for orbital group  1
 Library entry O      P cc-pVDZ              selected for orbital group  1
 Library entry O      D cc-pVDZ              selected for orbital group  1
 Library entry H      S cc-pVDZ              selected for orbital group  2
 Library entry H      P cc-pVDZ              selected for orbital group  2


 PROGRAM * SEWARD (Integral evaluation for generally contracted gaussian basis sets)     Author: Roland Lindh, 1990

 Geometry written to block  1 of record 700


 Point group  C1  



 ATOMIC COORDINATES

 NR  ATOM    CHARGE       X              Y              Z

   1  O       8.00   -0.008271993   -0.072925589   -0.097377285
   2  H       1.00   -0.056838634    1.689735540   -0.087258236
   3  H       1.00    0.188131760   -0.532258956    1.632832711

 Bond lengths in Bohr (Angstrom)

 1-2  1.763359115  1-3  1.800885395
     ( 0.933129458)     ( 0.952987511)

 Bond angles

  2-1-3  104.62249152

 NUCLEAR CHARGE:                   10
 NUMBER OF PRIMITIVE AOS:          41
 NUMBER OF SYMMETRY AOS:           40
 NUMBER OF CONTRACTIONS:           24   (   24A   )
 NUMBER OF INNER CORE ORBITALS:     0   (    0A   )
 NUMBER OF OUTER CORE ORBITALS:     1   (    1A   )
 NUMBER OF VALENCE ORBITALS:        6   (    6A   )


 NUCLEAR REPULSION ENERGY    9.33358510

 Eigenvalues of metric

         1 0.173E-01 0.422E-01 0.489E-01 0.975E-01 0.157E+00 0.167E+00 0.183E+00 0.222E+00


 OPERATOR DM      FOR CENTER  0  COORDINATES:    0.000000    0.000000    0.000000


 **********************************************************************************************************************************
 DATASETS  * FILE   NREC   LENGTH (MB)   RECORD NAMES
              1      18       28.64       500      610      700      900      950      970     1000      129      960     1100   
                                          VAR    BASINP    GEOM    SYMINP    ZMAT    AOBASIS   BASIS     P2S    ABASIS      S 
                                         1400     1410     1200     1210     1080     1600     1650     1700   
                                           T        V       H0       H01     AOSYM     SMH    MOLCAS    OPER   

 PROGRAMS   *        TOTAL       INT
 CPU TIMES  *         1.78      1.53
 REAL TIME  *         3.55 SEC
 DISK USED  *        28.98 MB (local),      347.80 MB (total)
 GA USED    *         0.00 MB       (max)       0.00 MB       (current)
 **********************************************************************************************************************************


 Program * Restricted Hartree-Fock

 Basis set VDZ/JKFIT generated.          Number of basis functions:   116 
 Coulomb and exchange fitting
 Thresholds for fitting:       THRAO_COUL= 1.0D-15    THRAO_EXCH= 1.0D-13    THRMO= 1.0D-12    THRPROD= 1.0D-12    THRASM= 1.0D-12
                               THR2HLF=    1.0D-12

 Basis set VDZ-JKFIT loaded. Number of basis functions: 116

 Orbital guess generated from atomic densities. Full valence occupancy:    7
 Using density fitting in orbital guess


 Initial occupancy:   5

 NELEC=   10   SYM=1   MS2= 0   THRE=1.0D-08   THRD=3.2D-06   THRG=3.2D-06  HFMA2=F  DIIS_START=2   DIIS_MAX=10   DIIS_INCORE=F

 Level shifts:    0.00 (CLOSED)    0.00 (OPEN)    0.30 (GAP_MIN)

 ITER           ETOT              DE          GRAD        DDIFF     DIIS  NEXP   TIME(IT)  TIME(TOT)  DIAG
   1      -75.98906528     -75.98906528     0.00D+00     0.24D+00     0     0       0.01      0.03    start
   2      -76.01848024      -0.02941496     0.22D-01     0.46D-01     1     0       0.00      0.03    diag
   3      -76.02656342      -0.00808319     0.11D-01     0.15D-01     2     0       0.01      0.04    diag
   4      -76.02676809      -0.00020466     0.13D-02     0.28D-02     3     0       0.00      0.04    diag
   5      -76.02678348      -0.00001539     0.33D-03     0.83D-03     4     0       0.01      0.05    diag
   6      -76.02678398      -0.00000050     0.52D-04     0.13D-03     5     0       0.00      0.05    diag
   7      -76.02678399      -0.00000001     0.77D-05     0.24D-04     6     0       0.00      0.05    diag
   8      -76.02678399      -0.00000000     0.68D-06     0.18D-05     7     0       0.01      0.06    fixocc
   9      -76.02678399      -0.00000000     0.91D-07     0.18D-06     0     0       0.00      0.06    diag

 Final occupancy:   5

 !RHF STATE 1.1 Energy                -76.026783987538
  RHF One-electron energy            -123.396173345989
  RHF Two-electron energy              38.035804256983
  RHF Kinetic energy                   76.045626334966
  RHF Nuclear energy                    9.333585101468
  RHF Virial quotient                  -0.999752223128

 !RHF STATE 1.1 Dipole moment           0.05405423     0.48428554     0.63837988
 Dipole moment /Debye                   0.13739215     1.23093106     1.62259981

 ELECTRON ORBITALS
 =================

  Orbital  Occupation    Energy    Cen Mu Typ  Coefficients
    1.1     2.00000   -20.54784     1  1  s    1.00043
    2.1     2.00000    -1.34407     1  2  s    0.86697    2  1  s    0.34908    3  1  s    0.33017
    3.1     2.00000    -0.70724     1  1  py   0.57715    1  1  pz  -0.42072    2  1  s    0.57012    3  1  s   -0.55615
    4.1     2.00000    -0.56895     1  2  s   -0.29751    1  1  py   0.47730    1  1  pz   0.63595    2  1  s    0.34199
                                    3  1  s    0.35874
    5.1     2.00000    -0.49418     1  1  px   0.91343


 HOMO      5.1    -0.494176 =     -13.4472eV
 LUMO      6.1     0.187885 =       5.1126eV
 LUMO-HOMO         0.682061 =      18.5598eV

 Orbitals saved in record  2100.2


 **********************************************************************************************************************************
 DATASETS  * FILE   NREC   LENGTH (MB)   RECORD NAMES
              1      18       28.64       500      610      700      900      950      970     1000      129      960     1100   
                                          VAR    BASINP    GEOM    SYMINP    ZMAT    AOBASIS   BASIS     P2S    ABASIS      S 
                                         1400     1410     1200     1210     1080     1600     1650     1700   
                                           T        V       H0       H01     AOSYM     SMH    MOLCAS    OPER   

              2       4        0.42       700     1000      520     2100   
                                         GEOM     BASIS   MCVARS     RHF  

 PROGRAMS   *        TOTAL     DF-HF       INT
 CPU TIMES  *         1.85      0.07      1.53
 REAL TIME  *         3.71 SEC
 DISK USED  *        29.16 MB (local),      349.92 MB (total)
 SF USED    *         0.15 MB
 GA USED    *         0.00 MB       (max)       0.00 MB       (current)
 **********************************************************************************************************************************


 PROGRAM * MP2 (Closed-shell)     Authors: C. Hampel, H.-J. Werner, 1991, M. Deegan, P.J. Knowles, 1992


 Basis set CC-PVDZ/MP2FIT generated.     Number of basis functions:   84 

 Convergence thresholds:  THRVAR = 1.00D-08  THRDEN = 1.00D-06

 Number of closed-shell orbitals:   5 (   5 )
 Number of external orbitals:      19 (  19 )

 Molecular orbitals read from record     2100.2  Type=RHF/CANONICAL  


 Entering DF-MP2

 Thresholds:    THRAO= 0.100D-13    THRMO= 0.100D-13    THROV= 0.100D-13

 Fitting basis: CC-PVDZ-MP2FIT
 Number of fitting functions:                  84
 Number of blocks in AO basis:                  1
 Minimum block size:                           24
 Maximum block size:                           24
 Average block size:                           24
 Number of groups in AO basis:                  7
 Number of shells in AO basis:                 24

 Using large memory version DFMP2B. NIBTK= 1  NGPU= 0  IGPU= 0

 para=T  nprocs= 12  mpptyp=0  number of tasks=  15

 Minimum memory with paging:                  0.67 MW
 Minimum memory for incore assembly:          0.67 MW
 Maximum memory for incore algorithm:         0.68 MW
 Memory for 3-index integrals:                0.00 MW

 Disk space for H1-integrals:                 0.08 MB (    75 records)

 CPU time for half transformed integrals      0.00 sec, elapsed time      0.01 sec
 CPU time for assembly                        0.00 sec, elapsed time      0.00 sec (  12.9 MFLOP/sec)
 Total CPU time                               0.02 sec, elapsed time      0.02 sec

 SCS-MP2 correlation energy:           -0.198981138014   (PS=  1.200000  PT=  0.333333)
 SCS-MP2 total energy:                -76.225765125553

 Norm of first-order wave function:     0.036866713421
 Coefficient of reference function:     0.982061156545

  Reference energy                    -76.026783987538
  MP2 singlet pair energy              -0.125828932947
  MP2 triplet pair energy              -0.077121029696
  MP2 correlation energy               -0.202949962643

 !MP2 total energy                    -76.229733950182


 **********************************************************************************************************************************
 DATASETS  * FILE   NREC   LENGTH (MB)   RECORD NAMES
              1      18       28.64       500      610      700      900      950      970     1000      129      960     1100   
                                          VAR    BASINP    GEOM    SYMINP    ZMAT    AOBASIS   BASIS     P2S    ABASIS      S 
                                         1400     1410     1200     1210     1080     1600     1650     1700   
                                           T        V       H0       H01     AOSYM     SMH    MOLCAS    OPER   

              2       4        0.42       700     1000      520     2100   
                                         GEOM     BASIS   MCVARS     RHF  

 PROGRAMS   *        TOTAL    DF-MP2     DF-HF       INT
 CPU TIMES  *         1.93      0.06      0.07      1.53
 REAL TIME  *         3.82 SEC
 DISK USED  *        29.16 MB (local),      349.92 MB (total)
 SF USED    *         0.91 MB
 GA USED    *         1.53 MB       (max)       0.00 MB       (current)
 **********************************************************************************************************************************

 DF-MP2/cc-pVDZ energy=    -76.229733950182

          DF-MP2           DF-HF
    -76.22973395    -76.02678399
 **********************************************************************************************************************************
 Molpro calculation terminated
