3
Properties=species:S:1:pos:R:3:tags:I:1:momenta:R:3:forces:R:3:charge:R:1 energy=-137.97654239599018 dipole="2.313031954788643e-06 0.46157638213252733 3.781063958391699e-16" pbc="F F F"
O       -0.00000043      -0.06367932       0.00000000        0      -0.13123893       0.25019547       0.24310223       0.00011763       0.00015585       0.00000000      -0.56471578
H        0.77220281       0.50535731       0.00000000        0       0.13121745      -0.25704790      -0.22529876      -0.00033494      -0.00012126      -0.00000000       0.28235781
H       -0.77219599       0.50536234       0.00000000        0       0.00002148       0.00685243      -0.01780347       0.00021732      -0.00003459      -0.00000000       0.28235797
3
Properties=species:S:1:pos:R:3:tags:I:1:momenta:R:3:forces:R:3:charge:R:1 energy=-137.97423375250935 dipole="0.04104623562059221 0.43635147858958256 -0.12819298945548166" pbc="F F F"
O       -0.00578020      -0.06016582       0.01769205        0      -0.01635515      -0.22339535       0.31635557       0.13311664       0.09020406      -0.04336016      -0.56472740
H        0.81850568       0.38341642      -0.21848945        0      -0.06576317       0.07430548      -0.21095144      -0.31766506      -0.05783239       0.05922772       0.28228170
H       -0.72676216       0.57153693      -0.06231925        0       0.08211831       0.14908987      -0.10540414       0.18454842      -0.03237167      -0.01586756       0.28244570
3
Properties=species:S:1:pos:R:3:tags:I:1:momenta:R:3:forces:R:3:charge:R:1 energy=-137.97416964749544 dipole="0.026538979703144817 0.41839933054543427 -0.20281304508505604" pbc="F F F"
O       -0.00361738      -0.05817949       0.02818195        0       0.03828769       0.28895987      -0.02059824      -0.04833667       0.38526041      -0.16707776      -0.56282185
H        0.77884870       0.34197468      -0.37043658        0       0.06401425      -0.17989471      -0.04061846      -0.18438228      -0.13428819       0.11263269       0.28146366
H       -0.72143356       0.58145148      -0.07686803        0      -0.10230194      -0.10906515       0.06121670       0.23271895      -0.25097222       0.05444507       0.28135819
3
Properties=species:S:1:pos:R:3:tags:I:1:momenta:R:3:forces:R:3:charge:R:1 energy=-137.9724311063877 dipole="0.0007474584620230415 0.3667890601978279 -0.26619069020553177" pbc="F F F"
O       -0.00032779      -0.05002699       0.03639813        0       0.02986489       0.01901943       0.29994842       0.25577605      -0.46219669       0.23092824      -0.56732366
H        0.73914003       0.25583381      -0.48633140        0      -0.17063482       0.01171357      -0.16839304       0.03889254       0.12058339      -0.10324178       0.28349347
H       -0.73393738       0.53819569      -0.09138065        0       0.14076993      -0.03073300      -0.13155538      -0.29466858       0.34161331      -0.12768646       0.28383019
3
Properties=species:S:1:pos:R:3:tags:I:1:momenta:R:3:forces:R:3:charge:R:1 energy=-137.93116330900133 dipole="-0.04123029493211362 0.3100058998113119 -0.3788167635843941" pbc="F F F"
O        0.00583285      -0.04311763       0.05263629        0       0.06260659       0.46945646       0.06063353      -0.10433736      -0.04629052       0.11502855      -0.56450524
H        0.64021995       0.20471782      -0.60328737        0       0.02385676      -0.29193197      -0.03378049       0.98479679      -0.13256183      -0.34971858       0.28233913
H       -0.73279902       0.47964620      -0.23215715        0      -0.08646334      -0.17752448      -0.02685304      -0.88045944       0.17885234       0.23469002       0.28216611
3
Properties=species:S:1:pos:R:3:tags:I:1:momenta:R:3:forces:R:3:charge:R:1 energy=-137.94127440586692 dipole="-0.0727533550097036 0.14174970236120324 -0.3996940168750167" pbc="F F F"
O        0.01013063      -0.01903835       0.05321979        0       0.13574820       0.25730535       0.26150621      -0.30286537      -0.28864056       1.39524192      -0.57351743
H        0.65560803      -0.06297283      -0.62588331        0      -0.12820759      -0.17257249      -0.13570873       0.35722178       0.13722302      -0.93818549       0.28706472
H       -0.81640164       0.36515000      -0.21882249        0      -0.00754061      -0.08473286      -0.12579748      -0.05435641       0.15141753      -0.45705642       0.28645271
3
Properties=species:S:1:pos:R:3:tags:I:1:momenta:R:3:forces:R:3:charge:R:1 energy=-137.93162409121544 dipole="-0.10875035053899251 0.0433460576491678 -0.47886539720250254" pbc="F F F"
O        0.01534269      -0.00612645       0.06672501        0      -0.03516321       0.23048594      -0.06884453      -0.21587427       0.09824980      -0.03427098      -0.56385116
H        0.51817409      -0.24623626      -0.69905497        0      -0.01562630      -0.23064669       0.02526712       0.87491373      -0.40380756      -0.28294032       0.28208519
H       -0.76169358       0.34347536      -0.36000596        0       0.05078951       0.00016075       0.04357741      -0.65903946       0.30555776       0.31721129       0.28176597
3
Properties=species:S:1:pos:R:3:tags:I:1:momenta:R:3:forces:R:3:charge:R:1 energy=-137.9226447633557 dipole="-0.12317943169969334 -0.04426098239330635 -0.39980277858503765" pbc="F F F"
O        0.01639561       0.00576681       0.05280672        0      -0.00190742       0.26188483       0.10595254       0.32803092       0.28092412       1.59967515      -0.57644717
H        0.51439997      -0.49644034      -0.56569706        0      -0.04068802      -0.34516244      -0.04974539       0.04668674      -0.30660747      -0.90949518       0.28831441
H       -0.77463144       0.40490933      -0.27245246        0       0.04259544       0.08327761      -0.05620714      -0.37471766       0.02568335      -0.69017997       0.28813275
3
Properties=species:S:1:pos:R:3:tags:I:1:momenta:R:3:forces:R:3:charge:R:1 energy=-137.91213110966143 dipole="-0.22085375347653718 -0.13439202251878016 -0.43359110147284424" pbc="F F F"
O        0.03111385       0.01942874       0.06171257        0       0.19331465       0.33128229      -0.01650217      -0.30692221      -0.64587565      -1.18460193      -0.55971023
H        0.24093620      -0.68402242      -0.58000680        0      -0.10392552      -0.34284858       0.01348158       0.46464405       0.11441582       0.69882403       0.27950470
H       -0.73477596       0.37564896      -0.39949651        0      -0.08938912       0.01156629       0.00302059      -0.15772184       0.53145983       0.48577790       0.28020553
3
Properties=species:S:1:pos:R:3:tags:I:1:momenta:R:3:forces:R:3:charge:R:1 energy=-137.92156035455912 dipole="-0.28196074054901354 -0.211155038690224 -0.255432746829871" pbc="F F F"
O        0.03831640       0.02940298       0.03502446        0       0.34807984       0.27315546      -0.37402568       0.11825280      -0.57560816      -0.18628444      -0.56672359
H        0.18695618      -0.89321266      -0.28708536        0      -0.15347949      -0.23693602       0.33600681      -0.62999294       1.28727364       0.20639075       0.28302538
H       -0.79511495       0.42652790      -0.26882373        0      -0.19460035      -0.03621944       0.03801887       0.51174014      -0.71166548      -0.02010631       0.28369821
3
Properties=species:S:1:pos:R:3:tags:I:1:momenta:R:3:forces:R:3:charge:R:1 energy=-137.871914568699 dipole="-0.40378312146528533 -0.2990192342327831 -0.08063796694415142" pbc="F F F"
O        0.05847300       0.04378904       0.01163290        0       0.17686718       0.00751900      -0.32064368      -1.87928129      -1.75621938      -0.34200438      -0.55409849
H       -0.05835309      -0.94737206       0.07095535        0      -0.15038993       0.00303375       0.35258648       0.79699995       1.31368896       0.09306813       0.27674166
H       -0.86973174       0.25235138      -0.25559310        0      -0.02647725      -0.01055275      -0.03194280       1.08228134       0.44253042       0.24893625       0.27735683
3
Properties=species:S:1:pos:R:3:tags:I:1:momenta:R:3:forces:R:3:charge:R:1 energy=-137.91246374308977 dipole="-0.3845431195772972 -0.19234925703258518 0.06903050388227952" pbc="F F F"
O        0.05277365       0.02667108      -0.00960545        0      -0.07511455      -0.30825499      -0.18885120      -0.32792811      -0.41027319       0.17757392      -0.56588169
H       -0.03664356      -0.86254245       0.41354184        0      -0.06464489       0.19649791       0.17349009      -0.37272661       1.27007354      -0.63522206       0.28278124
H       -0.80098102       0.43921839      -0.26108393        0       0.13975945       0.11175708       0.01536111       0.70065472      -0.85980035       0.45764813       0.28310046
3
Properties=species:S:1:pos:R:3:tags:I:1:momenta:R:3:forces:R:3:charge:R:1 energy=-137.9562874400789 dipole="-0.4431663953384634 -0.06742748289838835 0.1797200809696937" pbc="F F F"
O        0.06219833       0.00997930      -0.02567383        0      -0.02662865      -0.45529722      -0.06710791      -0.63444428      -0.58609359       0.68449154      -0.56023971
H       -0.24182250      -0.64828193       0.63166355        0      -0.12401129       0.45875696       0.04640472       0.51847040       0.37272071      -0.46666468       0.27964992
H       -0.74539085       0.48989026      -0.22416786        0       0.15063994      -0.00345974       0.02070319       0.11597389       0.21337288      -0.21782686       0.28058979
3
Properties=species:S:1:pos:R:3:tags:I:1:momenta:R:3:forces:R:3:charge:R:1 energy=-137.96717161059104 dipole="-0.373458182358196 0.10630376385683794 0.2225853145085939" pbc="F F F"
O        0.05066755      -0.01411581      -0.03062019        0      -0.41696910      -0.42583917      -0.02339972       0.64447131      -0.53479396       0.09927419      -0.56835144
H       -0.22972424      -0.41361074       0.79591886        0       0.13049035       0.34475146       0.03784023      -0.13147500       0.15225807      -0.07963079       0.28383005
H       -0.57447229       0.63765720      -0.30991447        0       0.28647875       0.08108771      -0.01444052      -0.51299631       0.38253589      -0.01964340       0.28452139
3
Properties=species:S:1:pos:R:3:tags:I:1:momenta:R:3:forces:R:3:charge:R:1 energy=-137.962539792023 dipole="-0.2786420461573925 0.29084086717950514 0.2625420363492598" pbc="F F F"
O        0.03887691      -0.04039760      -0.03702848        0      -0.30440503      -0.36998681       0.22827158      -0.19545653       0.01840227       0.59143876      -0.56218763
H       -0.20115416      -0.11232471       0.89671828        0       0.09896717       0.24461159      -0.16469942       0.23235645      -0.25323371      -0.19543707       0.28078340
H       -0.41590113       0.75351638      -0.30900137        0       0.20543786       0.12537522      -0.06357216      -0.03689992       0.23483144      -0.39600169       0.28140423
3
Properties=species:S:1:pos:R:3:tags:I:1:momenta:R:3:forces:R:3:charge:R:1 energy=-137.95237592821795 dipole="-0.1325703581877241 0.37856952035018815 0.211049568489242" pbc="F F F"
O        0.01801611      -0.05185744      -0.02773592        0      -0.42893983      -0.20043887       0.22419866       0.26835004      -0.26290093      -1.58682277      -0.56891287
H       -0.11796968       0.03347979       0.88668905        0       0.17377430       0.15892696      -0.06837151      -0.24748219       0.20431455       1.55128403       0.28519911
H       -0.16798245       0.78960273      -0.44646392        0       0.25516553       0.04151191      -0.15582715      -0.02086785       0.05858638       0.03553874       0.28371375
3
Properties=species:S:1:pos:R:3:tags:I:1:momenta:R:3:forces:R:3:charge:R:1 energy=-137.93187293900442 dipole="0.019452842946239012 0.4365855567569737 0.16807713941549618" pbc="F F F"
O       -0.00275128      -0.06039428      -0.02153816        0      -0.29351636      -0.06959707      -0.01688655       0.06802392      -0.10530460      -2.10487036      -0.56680264
H       -0.01909410       0.19402081       0.86246497        0       0.09171820       0.17367645       0.03715639      -0.05178857       0.40867533       2.14483394       0.28460112
H        0.06276241       0.76455867      -0.52061076        0       0.20179816      -0.10407938      -0.02026983      -0.01623535      -0.30337072      -0.03996358       0.28220153
3
Properties=species:S:1:pos:R:3:tags:I:1:momenta:R:3:forces:R:3:charge:R:1 energy=-137.948921475975 dipole="0.10563311902069715 0.42602815978808745 0.1381199042846959" pbc="F F F"
O       -0.01454929      -0.05856318      -0.01759717        0      -0.14440436       0.17953883      -0.10609206      -0.03808789      -0.29129355      -1.75106440      -0.56736999
H        0.04129530       0.23182594       0.86054538        0       0.06838089      -0.03991795       0.20240917       0.09347076       0.50033852       1.64649536       0.28464752
H        0.18963143       0.69769025      -0.58124270        0       0.07602347      -0.13962087      -0.09631711      -0.05538286      -0.20904497       0.10456904       0.28272247
3
Properties=species:S:1:pos:R:3:tags:I:1:momenta:R:3:forces:R:3:charge:R:1 energy=-137.9755167167535 dipole="0.1644396646488095 0.40550869615230506 0.1326000418098304" pbc="F F F"
O       -0.02259033      -0.05571417      -0.01843596        0      -0.21326460      -0.26589704      -0.37098368      -0.06237492      -0.14701731       0.18420788      -0.56545703
H        0.08724402       0.23891404       0.89074303        0       0.06832065       0.21033709       0.31071385       0.00833499       0.01557297      -0.16511997       0.28257832
H        0.27131015       0.64538263      -0.59812710        0       0.14494395       0.05555995       0.06026983       0.05403993       0.13144435      -0.01908791       0.28287871
3
Properties=species:S:1:pos:R:3:tags:I:1:momenta:R:3:forces:R:3:charge:R:1 energy=-137.9348104632328 dipole="0.21562775789639033 0.39973360617616094 0.13246769053694607" pbc="F F F"
O       -0.03049895      -0.05663222      -0.01947601        0      -0.07032298       0.10020510      -0.21623170       0.59661363       1.18215738       0.97293884      -0.55747461
H        0.09731089       0.28709520       0.90954150        0      -0.01035332       0.00946679       0.27288703      -0.22618249      -0.58016299      -1.42006718       0.27827131
H        0.38676924       0.61177264      -0.60041775        0       0.08067630      -0.10967188      -0.05665532      -0.37043114      -0.60199440       0.44712835       0.27920331
3
Properties=species:S:1:pos:R:3:tags:I:1:momenta:R:3:forces:R:3:charge:R:1 energy=-137.90371009967765 dipole="0.23676574506400302 0.36369376915861223 0.12632833715100572" pbc="F F F"
O       -0.03260256      -0.05055266      -0.01947566        0      -0.05330901      -0.00350793      -0.19903417       0.03573675       0.46227667       1.81398315      -0.56140772
H        0.05690025       0.29208128       0.93216827        0       0.01946902       0.14352954       0.06145170      -0.03848762      -0.53592744      -2.12134439       0.27951923
H        0.46056837       0.51029166      -0.62305015        0       0.03383999      -0.14002161       0.13758248       0.00275087       0.07365077       0.30736125       0.28188849
3
Properties=species:S:1:pos:R:3:tags:I:1:momenta:R:3:forces:R:3:charge:R:1 energy=-137.89181960643936 dipole="0.2827354951979287 0.37126344119922 0.13858873423695622" pbc="F F F"
O       -0.03930584      -0.05256067      -0.02211513        0       0.05170221       0.25819456       0.09373585      -0.12171973       0.68614036       2.48315102      -0.55821968
H        0.06826329       0.37532992       0.89219367        0      -0.08335740      -0.10601912      -0.09823534      -0.42948452      -1.03900254      -1.63839561       0.27721936
H        0.55559997       0.45891423      -0.54118188        0       0.03165519      -0.15217544       0.00449950       0.55120425       0.35286218      -0.84475542       0.28100031
3
Properties=species:S:1:pos:R:3:tags:I:1:momenta:R:3:forces:R:3:charge:R:1 energy=-137.92538581767315 dipole="0.2815958000928403 0.31051863238438004 0.12323320637113898" pbc="F F F"
O       -0.03720861      -0.04187768      -0.01820265        0      -0.26067739       0.09062698       0.35242218      -1.54346360      -0.69012014       1.61643635      -0.57099375
H       -0.02183882       0.36397790       0.86940069        0       0.02804142      -0.02317704      -0.36279725       0.24906432      -0.15167113      -0.85661242       0.28432756
H        0.61241476       0.30070554      -0.58048775        0       0.23263597      -0.06744994       0.01037507       1.29439927       0.84179127      -0.75982393       0.28666619
3
Properties=species:S:1:pos:R:3:tags:I:1:momenta:R:3:forces:R:3:charge:R:1 energy=-137.94099247284714 dipole="0.34374491849642486 0.32071076336975035 0.12703633314216273" pbc="F F F"
O       -0.04782236      -0.04447309      -0.01745301        0      -0.20415045       0.26442262       0.35945176       0.01379281      -0.14965126      -0.24251052      -0.56451584
H        0.01128449       0.50097432       0.75138242        0      -0.09528491      -0.09637575      -0.31055788      -0.38767166       0.32218836       0.89865045       0.28243294
H        0.74775320       0.20490360      -0.47436779        0       0.29943536      -0.16804687      -0.04889388       0.37387885      -0.17253710      -0.65613993       0.28208291
3
Properties=species:S:1:pos:R:3:tags:I:1:momenta:R:3:forces:R:3:charge:R:1 energy=-137.87517345006202 dipole="0.33203620334669226 0.22361535344389027 0.13566575913671589" pbc="F F F"
O       -0.04472131      -0.02875840      -0.01659388        0      -0.19441895       0.33316009       0.03465247      -0.35431859      -2.15220768      -2.50689023      -0.57722102
H       -0.10711243       0.52778248       0.69676974        0      -0.03246369      -0.08579294      -0.15855205       0.28409913       1.83902281       2.14997777       0.28983143
H        0.81693006      -0.07132855      -0.43339121        0       0.22688265      -0.24736715       0.12389958       0.07021945       0.31318487       0.35691247       0.28738959
3
Properties=species:S:1:pos:R:3:tags:I:1:momenta:R:3:forces:R:3:charge:R:1 energy=-137.90714857452858 dipole="0.39008922479968045 0.17052346303273172 0.22834211966745058" pbc="F F F"
O       -0.05496090      -0.02254047      -0.03054405        0      -0.06666694       0.02596740      -0.22362187       0.74755002      -1.42060350      -1.47767826      -0.56547775
H       -0.00939387       0.59299456       0.64896587        0       0.04187542       0.13653262       0.03972724      -0.35427911       1.64409814       1.76441653       0.28414280
H        0.88173452      -0.23523169      -0.16417005        0       0.02479152      -0.16250002       0.18389463      -0.39327092      -0.22349464      -0.28673828       0.28133495
3
Properties=species:S:1:pos:R:3:tags:I:1:momenta:R:3:forces:R:3:charge:R:1 energy=-137.94242225168006 dipole="0.3229059242278771 0.09255080076166515 0.2749890903539591" pbc="F F F"
O       -0.04400963      -0.01172827      -0.03651111        0       0.30141752      -0.01023168      -0.29922971      -0.01939553      -1.05867438      -1.16726169      -0.57157981
H       -0.11757931       0.63766776       0.63347208        0      -0.16397108       0.20037519       0.17258044       0.29470945       0.64058845       0.85865072       0.28647007
H        0.81610115      -0.45151648      -0.05396682        0      -0.13744644      -0.19014351       0.12664927      -0.27531392       0.41808593       0.30861097       0.28510974
3
Properties=species:S:1:pos:R:3:tags:I:1:momenta:R:3:forces:R:3:charge:R:1 energy=-137.95319185029152 dipole="0.2861007410319614 0.02877594434369484 0.3896462032433423" pbc="F F F"
O       -0.04038822      -0.00423083      -0.05522665        0       0.18843032      -0.10227378      -0.40659056       0.62753519       0.21471699       1.05350209      -0.55896828
H       -0.08919765       0.61658048       0.69907022        0       0.00062129       0.13779618       0.24718136      -0.21413072      -0.31475436      -0.67624490       0.27933003
H        0.73024039      -0.54942869       0.17748844        0      -0.18905160      -0.03552241       0.15940920      -0.41340447       0.10003737      -0.37725719       0.27963825
3
Properties=species:S:1:pos:R:3:tags:I:1:momenta:R:3:forces:R:3:charge:R:1 energy=-137.95211621538374 dipole="0.1858185276390676 -0.01923472470641714 0.4034724250522554" pbc="F F F"
O       -0.02533952       0.00228466      -0.05561839        0       0.39901329      -0.02303268       0.02272458      -0.10666088       0.34013303       0.35014057      -0.56553720
H       -0.20080463       0.64312008       0.66410151        0      -0.12434203       0.06006314       0.02566781       0.37882004      -0.79871448      -0.52004276       0.28247989
H        0.60299411      -0.67938236       0.21867487        0      -0.27467126      -0.03703046      -0.04839239      -0.27215916       0.45858145       0.16990219       0.28305731
3
Properties=species:S:1:pos:R:3:tags:I:1:momenta:R:3:forces:R:3:charge:R:1 energy=-137.96360089817702 dipole="0.0929275391573475 -0.08190597669438057 0.46199582155327334" pbc="F F F"
O       -0.01268362       0.01090491      -0.06458176        0       0.27167069       0.00855264      -0.13486760      -0.21835488       0.47571916       0.48795929      -0.56256567
H       -0.24164416       0.55575439       0.70275763        0      -0.05073304      -0.16093398       0.03060586      -0.04893312       0.01113977      -0.42097361       0.28082896
H        0.44295893      -0.72883740       0.32228553        0      -0.22093765       0.15238134       0.10426174       0.26728800      -0.48685893      -0.06698568       0.28173671
3
Properties=species:S:1:pos:R:3:tags:I:1:momenta:R:3:forces:R:3:charge:R:1 energy=-137.94312031332345 dipole="0.023393799162741036 -0.09347461718051334 0.4388867412018287" pbc="F F F"
O       -0.00262893       0.01171183      -0.05945093        0       0.08580817      -0.04255075       0.21567229      -0.74203659       1.42692215      -1.01726470      -0.57027011
H       -0.35746963       0.55235167       0.64304872        0      -0.15319797       0.08783500      -0.11432116      -0.03289032       0.03379164       0.20204702       0.28436169
H        0.39919611      -0.73824214       0.30055785        0       0.06738980      -0.04528425      -0.10135113       0.77492691      -1.46071379       0.81521769       0.28590842
3
Properties=species:S:1:pos:R:3:tags:I:1:momenta:R:3:forces:R:3:charge:R:1 energy=-137.96557381013562 dipole="-0.002805319664101844 -0.10201389149478543 0.44378738531784784" pbc="F F F"
O        0.00063385       0.01349011      -0.06049870        0      -0.04482473       0.17182601      -0.40745498      -0.29609230       0.65533235      -0.68440641      -0.56806832
H       -0.40934372       0.52728611       0.62944518        0       0.04606127      -0.09865894       0.14540753      -0.11257424       0.12996112       0.23571601       0.28369412
H        0.39928317      -0.74140155       0.33079161        0      -0.00123655      -0.07316707       0.26204745       0.40866654      -0.78529348       0.44869040       0.28437421
3
Properties=species:S:1:pos:R:3:tags:I:1:momenta:R:3:forces:R:3:charge:R:1 energy=-137.97031396003794 dipole="0.0027828816170122053 -0.0833103747829258 0.4677820543112391" pbc="F F F"
O       -0.00032260       0.01152084      -0.06531543        0      -0.07764815      -0.01319677       0.13456248      -0.06391228       0.02471812       0.49640774      -0.56214275
H       -0.38790201       0.54935154       0.63637509        0      -0.06943362       0.21143596      -0.14761371       0.01475516       0.02420174      -0.29259348       0.28098575
H        0.39302232      -0.73221066       0.40031300        0       0.14708177      -0.19823919       0.01305124       0.04915712      -0.04891986      -0.20381426       0.28115700
3
Properties=species:S:1:pos:R:3:tags:I:1:momenta:R:3:forces:R:3:charge:R:1 energy=-137.95562629600988 dipole="0.046144601677018816 -0.01483706456906498 0.4444320867898298" pbc="F F F"
O       -0.00677231       0.00281050      -0.06101576        0      -0.18307886      -0.04053949      -0.35149826       0.44425747      -0.77942282       0.04450588      -0.56568830
H       -0.33485323       0.67319217       0.53660589        0       0.10354412       0.06542935       0.03732802       0.08369850      -0.11130779       0.24473701       0.28342656
H        0.44234348      -0.71780056       0.43183777        0       0.07953474      -0.02488986       0.31417024      -0.52795597       0.89073062      -0.28924288       0.28226174
3
Properties=species:S:1:pos:R:3:tags:I:1:momenta:R:3:forces:R:3:charge:R:1 energy=-137.94216681965602 dipole="0.05396191129532358 0.05976682998108971 0.4751782691961276" pbc="F F F"
O       -0.00822631      -0.00745212      -0.06737135        0      -0.02195352      -0.08671085       0.07911340       0.65739159      -0.74893746       1.27710502      -0.55867736
H       -0.31625226       0.71885091       0.48087107        0      -0.03841988       0.14093726      -0.14306493      -0.10647997       0.11975831      -0.21159273       0.28018171
H        0.44682040      -0.60057068       0.58844856        0       0.06037340      -0.05422642       0.06395153      -0.55091162       0.62917915      -1.06551228       0.27849566
3
Properties=species:S:1:pos:R:3:tags:I:1:momenta:R:3:forces:R:3:charge:R:1 energy=-137.94875286417656 dipole="0.052101524932844534 0.09662056726016502 0.44450485909011656" pbc="F F F"
O       -0.00787406      -0.01229781      -0.06203561        0       0.11071123      -0.19274736      -0.04024846       0.65501757      -0.96391568       0.72687617      -0.56250899
H       -0.31352159       0.78336325       0.37057342        0      -0.00610631       0.03132912      -0.03239567       0.01525756       0.04272704       0.16237533       0.28212304
H        0.43849884      -0.58817223       0.61405724        0      -0.10460492       0.16141824       0.07264413      -0.67027513       0.92118864      -0.88925149       0.28038595
3
Properties=species:S:1:pos:R:3:tags:I:1:momenta:R:3:forces:R:3:charge:R:1 energy=-137.95942973585144 dipole="0.05579084515260619 0.14693479951688207 0.4492218542660842" pbc="F F F"
O       -0.00811930      -0.02014189      -0.06339230        0       0.15919893      -0.24924944       0.29745531       0.36121057      -0.19342121       1.07988024      -0.55992137
H       -0.26254622       0.83010871       0.31650550        0       0.00772128       0.09928621      -0.14609520      -0.00041466      -0.15178395      -0.24405099       0.28039176
H        0.39141597      -0.51041620       0.68965867        0      -0.16692021       0.14996323      -0.15136012      -0.36079591       0.34520516      -0.83582925       0.27952962
3
Properties=species:S:1:pos:R:3:tags:I:1:momenta:R:3:forces:R:3:charge:R:1 energy=-137.96054808563252 dipole="0.014326019606843442 0.17935637907385027 0.41029377185969695" pbc="F F F"
O       -0.00163024      -0.02533737      -0.05554567        0       0.08445792      -0.27951455       0.12952886      -0.37722968       0.79989961      -0.87782226      -0.56778391
H       -0.23457109       0.89109601       0.16174431        0       0.11734559       0.03046578      -0.05397979       0.17298319      -0.55245731       0.06885814       0.28319135
H        0.26044625      -0.48894074       0.71987793        0      -0.20180351       0.24904877      -0.07554908       0.20424649      -0.24744230       0.80896413       0.28459256
3
Properties=species:S:1:pos:R:3:tags:I:1:momenta:R:3:forces:R:3:charge:R:1 energy=-137.93346700022204 dipole="0.011714593103701144 0.22567769281421948 0.4146934599354549" pbc="F F F"
O       -0.00134474      -0.03238755      -0.05630600        0       0.01359251      -0.01567007       0.23821546      -0.33079016       1.27455282      -1.44243614      -0.56603128
H       -0.11652193       0.91297679       0.11490501        0       0.10809426      -0.04013221      -0.17418054       0.00092623      -0.22564499      -0.29413339       0.28183300
H        0.13786571      -0.39892084       0.77878517        0      -0.12168677       0.05580228      -0.06403492       0.32986393      -1.04890783       1.73656953       0.28419828
3
Properties=species:S:1:pos:R:3:tags:I:1:momenta:R:3:forces:R:3:charge:R:1 energy=-137.91513274968747 dipole="0.008751242856099363 0.2532313573619014 0.36220947938335474" pbc="F F F"
O       -0.00109848      -0.03442965      -0.04777274        0      -0.05785940       0.02769614      -0.23767223      -0.13678061      -0.22700003      -2.40479197      -0.57354529
H       -0.05188248       0.90441812      -0.04762005        0       0.06505870      -0.11925448       0.00756163      -0.03844451       0.89742464       0.16306212       0.28615742
H        0.06931762      -0.35794997       0.80587014        0      -0.00719930       0.09155834       0.23011060       0.17522512      -0.67042460       2.24172985       0.28738787
3
Properties=species:S:1:pos:R:3:tags:I:1:momenta:R:3:forces:R:3:charge:R:1 energy=-137.95252146400028 dipole="0.03148670013471809 0.28536559355696295 0.37272558468769623" pbc="F F F"
O       -0.00437735      -0.03859056      -0.05152984        0      -0.06899510       0.10816318      -0.13625181       0.02224709      -1.09108552      -0.07995979      -0.56660513
H       -0.03007771       0.89416954      -0.04617507        0      -0.03205302       0.04936286      -0.11783109      -0.06413995       1.41485344      -0.22912196       0.28383142
H        0.09955504      -0.28165931       0.86405786        0       0.10104812      -0.15752604       0.25408289       0.04189286      -0.32376791       0.30908175       0.28277370
3