
 Working directory              : /scratch/st_ac135682.16602229/molpro.fmPcXbqavD/
 Global scratch directory       : /scratch/st_ac135682.16602229/molpro.fmPcXbqavD/
 Wavefunction directory         : /home/st/st_us-031401/st_ac135682/wfu/
 Main file repository           : /scratch/st_ac135682.16602229/molpro.fmPcXbqavD/

 id        : uulm

 Nodes     nprocs
 n1702       12
 GA implementation: MPI file
 GA implementation (serial work in mppx): MPI file

 Using customized tuning parameters: mindgm=1; mindgv=20; mindgc=4; mindgr=1; noblas=0; minvec=7
 default implementation of scratch files=sf  


 Variables initialized (1042), CPU time= 0.01 sec
 GPRINT,ORBITALS
 NOSYM
 ANGSTROM
 GEOMETRY=initial.xyz
 Including file /lustre/home/st/st_us-031401/st_ac135682/codes/helpro/examples/molpro.2024.1/0.1_python/DF-MP2/cc-pVDZ/frozen/00020/initial.xyz
 BASIS=cc-pVDZ
 {DF-HF}
 {DF-MP2}
 Commands initialized (847), CPU time= 0.02 sec, 718 directives.
 Default parameters read. Elapsed time= 0.18 sec

 Checking input...
 Passed
1


                                         ***  PROGRAM SYSTEM MOLPRO  ***
                                       Copyright, TTI GmbH Stuttgart, 2015
                                    Version 2024.1 linked Wed Jan 31 11:42:09 2024


 **********************************************************************************************************************************
 LABEL *                                                                                                                                                                 
  64 bit mpp version                                                                     DATE: 06-Mar-25          TIME: 23:28:21  
 **********************************************************************************************************************************

 SHA1:             675817fde4514a4a933b69e420913a90cee4ef91
 **********************************************************************************************************************************

 Memory per process:      4000 MW
 Total memory per node:  48000 MW

 GA preallocation disabled
 GA check disabled

 Variable memory set to 4000.0 MW


 ZSYMEL=NOSYM
 ZUNIT=ANG


 Geometry recognized as XYZ

 SETTING BASIS          =    CC-PVDZ


 Recomputing integrals since basis changed


 Using spherical harmonics

 Library entry O      S cc-pVDZ              selected for orbital group  1
 Library entry O      P cc-pVDZ              selected for orbital group  1
 Library entry O      D cc-pVDZ              selected for orbital group  1
 Library entry H      S cc-pVDZ              selected for orbital group  2
 Library entry H      P cc-pVDZ              selected for orbital group  2


 PROGRAM * SEWARD (Integral evaluation for generally contracted gaussian basis sets)     Author: Roland Lindh, 1990

 Geometry written to block  1 of record 700


 Point group  C1  



 ATOMIC COORDINATES

 NR  ATOM    CHARGE       X              Y              Z

   1  O       8.00   -0.061609909   -0.095530682   -0.036803663
   2  H       1.00    0.107525889    0.551953625    1.761542732
   3  H       1.00    0.870348081    0.964311481   -1.177394145

 Bond lengths in Bohr (Angstrom)

 1-2  1.918825841  1-3  1.814595755
     ( 1.015398907)     ( 0.960242721)

 Bond angles

  2-1-3  110.28816207

 NUCLEAR CHARGE:                   10
 NUMBER OF PRIMITIVE AOS:          41
 NUMBER OF SYMMETRY AOS:           40
 NUMBER OF CONTRACTIONS:           24   (   24A   )
 NUMBER OF INNER CORE ORBITALS:     0   (    0A   )
 NUMBER OF OUTER CORE ORBITALS:     1   (    1A   )
 NUMBER OF VALENCE ORBITALS:        6   (    6A   )


 NUCLEAR REPULSION ENERGY    8.90426180

 Eigenvalues of metric

         1 0.188E-01 0.454E-01 0.562E-01 0.101E+00 0.164E+00 0.183E+00 0.183E+00 0.224E+00


 OPERATOR DM      FOR CENTER  0  COORDINATES:    0.000000    0.000000    0.000000


 **********************************************************************************************************************************
 DATASETS  * FILE   NREC   LENGTH (MB)   RECORD NAMES
              1      18       28.64       500      610      700      900      950      970     1000      129      960     1100   
                                          VAR    BASINP    GEOM    SYMINP    ZMAT    AOBASIS   BASIS     P2S    ABASIS      S 
                                         1400     1410     1200     1210     1080     1600     1650     1700   
                                           T        V       H0       H01     AOSYM     SMH    MOLCAS    OPER   

 PROGRAMS   *        TOTAL       INT
 CPU TIMES  *         1.70      1.47
 REAL TIME  *         3.49 SEC
 DISK USED  *        28.98 MB (local),      347.80 MB (total)
 GA USED    *         0.00 MB       (max)       0.00 MB       (current)
 **********************************************************************************************************************************


 Program * Restricted Hartree-Fock

 Basis set VDZ/JKFIT generated.          Number of basis functions:   116 
 Coulomb and exchange fitting
 Thresholds for fitting:       THRAO_COUL= 1.0D-15    THRAO_EXCH= 1.0D-13    THRMO= 1.0D-12    THRPROD= 1.0D-12    THRASM= 1.0D-12
                               THR2HLF=    1.0D-12

 Basis set VDZ-JKFIT loaded. Number of basis functions: 116

 Orbital guess generated from atomic densities. Full valence occupancy:    7
 Using density fitting in orbital guess


 Initial occupancy:   5

 NELEC=   10   SYM=1   MS2= 0   THRE=1.0D-08   THRD=3.2D-06   THRG=3.2D-06  HFMA2=F  DIIS_START=2   DIIS_MAX=10   DIIS_INCORE=F

 Level shifts:    0.00 (CLOSED)    0.00 (OPEN)    0.30 (GAP_MIN)

 ITER           ETOT              DE          GRAD        DDIFF     DIIS  NEXP   TIME(IT)  TIME(TOT)  DIAG
   1      -75.98226026     -75.98226026     0.00D+00     0.24D+00     0     0       0.00      0.02    start
   2      -76.01173788      -0.02947762     0.22D-01     0.45D-01     1     0       0.01      0.03    diag
   3      -76.02073646      -0.00899858     0.12D-01     0.15D-01     2     0       0.00      0.03    diag
   4      -76.02098303      -0.00024658     0.13D-02     0.30D-02     3     0       0.00      0.03    diag
   5      -76.02100444      -0.00002141     0.37D-03     0.93D-03     4     0       0.01      0.04    diag
   6      -76.02100523      -0.00000079     0.62D-04     0.15D-03     5     0       0.00      0.04    diag
   7      -76.02100525      -0.00000002     0.98D-05     0.28D-04     6     0       0.01      0.05    diag
   8      -76.02100525      -0.00000000     0.16D-05     0.38D-05     7     0       0.00      0.05    fixocc
   9      -76.02100525      -0.00000000     0.36D-06     0.10D-05     8     0       0.01      0.06    diag
  10      -76.02100525      -0.00000000     0.56D-07     0.96D-07     0     0       0.00      0.06    diag/orth

 Final occupancy:   5

 !RHF STATE 1.1 Energy                -76.021005249333
  RHF One-electron energy            -122.647466902995
  RHF Two-electron energy              37.722199852977
  RHF Kinetic energy                   75.873562293730
  RHF Nuclear energy                    8.904261800684
  RHF Virial quotient                  -1.001943271822

 !RHF STATE 1.1 Dipole moment           0.40778521     0.62902358     0.22915758
 Dipole moment /Debye                   1.03648661     1.59881848     0.58246048

 ELECTRON ORBITALS
 =================

  Orbital  Occupation    Energy    Cen Mu Typ  Coefficients
    1.1     2.00000   -20.55210     1  1  s    1.00035
    2.1     2.00000    -1.31812     1  2  s    0.87674    2  1  s    0.27980    3  1  s    0.32814
    3.1     2.00000    -0.69332     1  1  pz   0.66037    2  1  s    0.53327    3  1  s   -0.57172
    4.1     2.00000    -0.54912     1  2  s   -0.27641    1  1  px   0.41470    1  1  py   0.64130    2  1  s    0.35602
                                    3  1  s    0.31294
    5.1     2.00000    -0.48886     1  1  px   0.74498    1  1  py  -0.52649


 HOMO      5.1    -0.488865 =     -13.3027eV
 LUMO      6.1     0.180304 =       4.9063eV
 LUMO-HOMO         0.669169 =      18.2090eV

 Orbitals saved in record  2100.2


 **********************************************************************************************************************************
 DATASETS  * FILE   NREC   LENGTH (MB)   RECORD NAMES
              1      18       28.64       500      610      700      900      950      970     1000      129      960     1100   
                                          VAR    BASINP    GEOM    SYMINP    ZMAT    AOBASIS   BASIS     P2S    ABASIS      S 
                                         1400     1410     1200     1210     1080     1600     1650     1700   
                                           T        V       H0       H01     AOSYM     SMH    MOLCAS    OPER   

              2       4        0.42       700     1000      520     2100   
                                         GEOM     BASIS   MCVARS     RHF  

 PROGRAMS   *        TOTAL     DF-HF       INT
 CPU TIMES  *         1.77      0.07      1.47
 REAL TIME  *         3.65 SEC
 DISK USED  *        29.16 MB (local),      349.95 MB (total)
 SF USED    *         0.15 MB
 GA USED    *         0.00 MB       (max)       0.00 MB       (current)
 **********************************************************************************************************************************


 PROGRAM * MP2 (Closed-shell)     Authors: C. Hampel, H.-J. Werner, 1991, M. Deegan, P.J. Knowles, 1992


 Basis set CC-PVDZ/MP2FIT generated.     Number of basis functions:   84 

 Convergence thresholds:  THRVAR = 1.00D-08  THRDEN = 1.00D-06

 Number of core orbitals:           1 (   1 )
 Number of closed-shell orbitals:   4 (   4 )
 Number of external orbitals:      19 (  19 )

 Molecular orbitals read from record     2100.2  Type=RHF/CANONICAL  


 Entering DF-MP2

 Thresholds:    THRAO= 0.100D-13    THRMO= 0.100D-13    THROV= 0.100D-13

 Fitting basis: CC-PVDZ-MP2FIT
 Number of fitting functions:                  84
 Number of blocks in AO basis:                  1
 Minimum block size:                           24
 Maximum block size:                           24
 Average block size:                           24
 Number of groups in AO basis:                  7
 Number of shells in AO basis:                 24

 Using large memory version DFMP2B. NIBTK= 1  NGPU= 0  IGPU= 0

 para=T  nprocs= 12  mpptyp=0  number of tasks=  15

 Minimum memory with paging:                  0.67 MW
 Minimum memory for incore assembly:          0.67 MW
 Maximum memory for incore algorithm:         0.67 MW
 Memory for 3-index integrals:                0.00 MW

 Disk space for H1-integrals:                 0.07 MB (    60 records)

 CPU time for half transformed integrals      0.00 sec, elapsed time      0.01 sec
 CPU time for assembly                        0.00 sec, elapsed time      0.00 sec (   6.4 MFLOP/sec)
 Total CPU time                               0.01 sec, elapsed time      0.02 sec

 SCS-MP2 correlation energy:           -0.199699627344   (PS=  1.200000  PT=  0.333333)
 SCS-MP2 total energy:                -76.220704876677

 Norm of first-order wave function:     0.038659543060
 Coefficient of reference function:     0.981213222884

  Reference energy                    -76.021005249333
  MP2 singlet pair energy              -0.126778619663
  MP2 triplet pair energy              -0.076444206024
  MP2 correlation energy               -0.203222825687

 !MP2 total energy                    -76.224228075021


 **********************************************************************************************************************************
 DATASETS  * FILE   NREC   LENGTH (MB)   RECORD NAMES
              1      18       28.64       500      610      700      900      950      970     1000      129      960     1100   
                                          VAR    BASINP    GEOM    SYMINP    ZMAT    AOBASIS   BASIS     P2S    ABASIS      S 
                                         1400     1410     1200     1210     1080     1600     1650     1700   
                                           T        V       H0       H01     AOSYM     SMH    MOLCAS    OPER   

              2       4        0.42       700     1000      520     2100   
                                         GEOM     BASIS   MCVARS     RHF  

 PROGRAMS   *        TOTAL    DF-MP2     DF-HF       INT
 CPU TIMES  *         1.86      0.07      0.07      1.47
 REAL TIME  *         3.76 SEC
 DISK USED  *        29.16 MB (local),      349.95 MB (total)
 SF USED    *         0.85 MB
 GA USED    *         1.53 MB       (max)       0.00 MB       (current)
 **********************************************************************************************************************************

 DF-MP2/cc-pVDZ energy=    -76.224228075021

          DF-MP2           DF-HF
    -76.22422808    -76.02100525
 **********************************************************************************************************************************
 Molpro calculation terminated
