
 Working directory              : /scratch/st_ac135682.16602217/molpro.78zHG7FM9X/
 Global scratch directory       : /scratch/st_ac135682.16602217/molpro.78zHG7FM9X/
 Wavefunction directory         : /home/st/st_us-031401/st_ac135682/wfu/
 Main file repository           : /scratch/st_ac135682.16602217/molpro.78zHG7FM9X/

 id        : uulm

 Nodes     nprocs
 n1718       12
 GA implementation: MPI file
 GA implementation (serial work in mppx): MPI file

 Using customized tuning parameters: mindgm=1; mindgv=20; mindgc=4; mindgr=1; noblas=0; minvec=7
 default implementation of scratch files=sf  


 Variables initialized (1042), CPU time= 0.01 sec
 GPRINT,ORBITALS
 NOSYM
 ANGSTROM
 GEOMETRY=initial.xyz
 Including file /lustre/home/st/st_us-031401/st_ac135682/codes/helpro/examples/molpro.2024.1/0.1_python/DF-MP2/aug-cc-pVDZ/frozen/00020/initial.xyz
 BASIS=aug-cc-pVDZ
 {DF-HF}
 {DF-MP2}
 Commands initialized (847), CPU time= 0.01 sec, 718 directives.
 Default parameters read. Elapsed time= 0.17 sec

 Checking input...
 Passed
1


                                         ***  PROGRAM SYSTEM MOLPRO  ***
                                       Copyright, TTI GmbH Stuttgart, 2015
                                    Version 2024.1 linked Wed Jan 31 11:42:09 2024


 **********************************************************************************************************************************
 LABEL *                                                                                                                                                                 
  64 bit mpp version                                                                     DATE: 06-Mar-25          TIME: 23:28:18  
 **********************************************************************************************************************************

 SHA1:             675817fde4514a4a933b69e420913a90cee4ef91
 **********************************************************************************************************************************

 Memory per process:      4000 MW
 Total memory per node:  48000 MW

 GA preallocation disabled
 GA check disabled

 Variable memory set to 4000.0 MW


 ZSYMEL=NOSYM
 ZUNIT=ANG


 Geometry recognized as XYZ

 SETTING BASIS          =    AUG-CC-PVDZ


 Recomputing integrals since basis changed


 Using spherical harmonics

 Library entry O      S aug-cc-pVDZ          selected for orbital group  1
 Library entry O      P aug-cc-pVDZ          selected for orbital group  1
 Library entry O      D aug-cc-pVDZ          selected for orbital group  1
 Library entry H      S aug-cc-pVDZ          selected for orbital group  2
 Library entry H      P aug-cc-pVDZ          selected for orbital group  2


 PROGRAM * SEWARD (Integral evaluation for generally contracted gaussian basis sets)     Author: Roland Lindh, 1990

 Geometry written to block  1 of record 700


 Point group  C1  



 ATOMIC COORDINATES

 NR  ATOM    CHARGE       X              Y              Z

   1  O       8.00   -0.061609909   -0.095530682   -0.036803663
   2  H       1.00    0.107525889    0.551953625    1.761542732
   3  H       1.00    0.870348081    0.964311481   -1.177394145

 Bond lengths in Bohr (Angstrom)

 1-2  1.918825841  1-3  1.814595755
     ( 1.015398907)     ( 0.960242721)

 Bond angles

  2-1-3  110.28816207

 NUCLEAR CHARGE:                   10
 NUMBER OF PRIMITIVE AOS:          59
 NUMBER OF SYMMETRY AOS:           57
 NUMBER OF CONTRACTIONS:           41   (   41A   )
 NUMBER OF INNER CORE ORBITALS:     0   (    0A   )
 NUMBER OF OUTER CORE ORBITALS:     1   (    1A   )
 NUMBER OF VALENCE ORBITALS:        6   (    6A   )


 NUCLEAR REPULSION ENERGY    8.90426180

 Eigenvalues of metric

         1 0.301E-02 0.369E-02 0.119E-01 0.167E-01 0.289E-01 0.392E-01 0.815E-01 0.928E-01


 OPERATOR DM      FOR CENTER  0  COORDINATES:    0.000000    0.000000    0.000000


 **********************************************************************************************************************************
 DATASETS  * FILE   NREC   LENGTH (MB)   RECORD NAMES
              1      18       28.68       500      610      700      900      950      970     1000      129      960     1100   
                                          VAR    BASINP    GEOM    SYMINP    ZMAT    AOBASIS   BASIS     P2S    ABASIS      S 
                                         1400     1410     1200     1210     1080     1600     1650     1700   
                                           T        V       H0       H01     AOSYM     SMH    MOLCAS    OPER   

 PROGRAMS   *        TOTAL       INT
 CPU TIMES  *         1.88      1.65
 REAL TIME  *         3.54 SEC
 DISK USED  *        29.03 MB (local),      348.38 MB (total)
 GA USED    *         0.00 MB       (max)       0.00 MB       (current)
 **********************************************************************************************************************************


 Program * Restricted Hartree-Fock

 Basis set AVDZ/JKFIT generated.         Number of basis functions:   150 
 Coulomb and exchange fitting
 Thresholds for fitting:       THRAO_COUL= 1.0D-15    THRAO_EXCH= 1.0D-13    THRMO= 1.0D-12    THRPROD= 1.0D-12    THRASM= 1.0D-12
                               THR2HLF=    1.0D-12

 Basis set AVDZ-JKFIT loaded. Number of basis functions: 150

 Orbital guess generated from atomic densities. Full valence occupancy:    7
 Using density fitting in orbital guess


 Initial occupancy:   5

 NELEC=   10   SYM=1   MS2= 0   THRE=1.0D-08   THRD=3.2D-06   THRG=3.2D-06  HFMA2=F  DIIS_START=2   DIIS_MAX=10   DIIS_INCORE=F

 Level shifts:    0.00 (CLOSED)    0.00 (OPEN)    0.30 (GAP_MIN)

 ITER           ETOT              DE          GRAD        DDIFF     DIIS  NEXP   TIME(IT)  TIME(TOT)  DIAG
   1      -75.99873315     -75.99873315     0.00D+00     0.15D+00     0     0       0.00      0.03    start
   2      -76.02466432      -0.02593117     0.15D-01     0.26D-01     1     0       0.01      0.04    diag
   3      -76.03558575      -0.01092143     0.94D-02     0.93D-02     2     0       0.00      0.04    diag
   4      -76.03578655      -0.00020080     0.92D-03     0.14D-02     3     0       0.01      0.05    diag
   5      -76.03580490      -0.00001835     0.24D-03     0.42D-03     4     0       0.00      0.05    diag
   6      -76.03580599      -0.00000109     0.46D-04     0.95D-04     5     0       0.01      0.06    diag
   7      -76.03580604      -0.00000005     0.89D-05     0.21D-04     6     0       0.00      0.06    diag
   8      -76.03580604      -0.00000000     0.16D-05     0.33D-05     7     0       0.01      0.07    fixocc
   9      -76.03580604      -0.00000000     0.23D-06     0.40D-06     8     0       0.01      0.08    diag
  10      -76.03580604      -0.00000000     0.67D-07     0.93D-07     0     0       0.00      0.08    diag/orth

 Final occupancy:   5

 !RHF STATE 1.1 Energy                -76.035806044964
  RHF One-electron energy            -122.471218303333
  RHF Two-electron energy              37.531150457684
  RHF Kinetic energy                   75.808925909184
  RHF Nuclear energy                    8.904261800684
  RHF Virial quotient                  -1.002992789214

 !RHF STATE 1.1 Dipole moment           0.39272667     0.60685502     0.22536473
 Dipole moment /Debye                   0.99821163     1.54247160     0.57282001

 ELECTRON ORBITALS
 =================

  Orbital  Occupation    Energy    Cen Mu Typ  Coefficients
    1.1     2.00000   -20.57926     1  1  s    1.00094
    2.1     2.00000    -1.33824     1  2  s    0.88690    2  1  s    0.29221    3  1  s    0.35372
    3.1     2.00000    -0.71331     1  1  pz   0.67419    2  1  s    0.56408    3  1  s   -0.60864
    4.1     2.00000    -0.56841     1  2  s   -0.27739    1  1  px   0.41704    1  1  py   0.64517    2  1  s    0.36448
                                    3  1  s    0.32496
    5.1     2.00000    -0.50524     1  1  px   0.74170    1  1  py  -0.52417


 HOMO      5.1    -0.505237 =     -13.7482eV
 LUMO      6.1     0.035276 =       0.9599eV
 LUMO-HOMO         0.540513 =      14.7081eV

 Orbitals saved in record  2100.2


 **********************************************************************************************************************************
 DATASETS  * FILE   NREC   LENGTH (MB)   RECORD NAMES
              1      18       28.68       500      610      700      900      950      970     1000      129      960     1100   
                                          VAR    BASINP    GEOM    SYMINP    ZMAT    AOBASIS   BASIS     P2S    ABASIS      S 
                                         1400     1410     1200     1210     1080     1600     1650     1700   
                                           T        V       H0       H01     AOSYM     SMH    MOLCAS    OPER   

              2       4        0.44       700     1000      520     2100   
                                         GEOM     BASIS   MCVARS     RHF  

 PROGRAMS   *        TOTAL     DF-HF       INT
 CPU TIMES  *         1.96      0.08      1.65
 REAL TIME  *         3.72 SEC
 DISK USED  *        29.30 MB (local),      351.60 MB (total)
 SF USED    *         0.33 MB
 GA USED    *         0.00 MB       (max)       0.00 MB       (current)
 **********************************************************************************************************************************


 PROGRAM * MP2 (Closed-shell)     Authors: C. Hampel, H.-J. Werner, 1991, M. Deegan, P.J. Knowles, 1992


 Basis set AUG-CC-PVDZ/MP2FIT generated. Number of basis functions:   118 

 Convergence thresholds:  THRVAR = 1.00D-08  THRDEN = 1.00D-06

 Number of core orbitals:           1 (   1 )
 Number of closed-shell orbitals:   4 (   4 )
 Number of external orbitals:      36 (  36 )

 Molecular orbitals read from record     2100.2  Type=RHF/CANONICAL  


 Entering DF-MP2

 Thresholds:    THRAO= 0.100D-13    THRMO= 0.100D-13    THROV= 0.100D-13

 Fitting basis: AUG-CC-PVDZ-MP2FIT
 Number of fitting functions:                 118
 Number of blocks in AO basis:                  1
 Minimum block size:                           41
 Maximum block size:                           41
 Average block size:                           41
 Number of groups in AO basis:                 14
 Number of shells in AO basis:                 31

 Using large memory version DFMP2B. NIBTK= 1  NGPU= 0  IGPU= 0

 para=T  nprocs= 12  mpptyp=0  number of tasks=  20

 Minimum memory with paging:                  0.68 MW
 Minimum memory for incore assembly:          0.68 MW
 Maximum memory for incore algorithm:         0.69 MW
 Memory for 3-index integrals:                0.00 MW

 Disk space for H1-integrals:                 0.16 MB (    80 records)

 CPU time for half transformed integrals      0.00 sec, elapsed time      0.01 sec
 CPU time for assembly                        0.00 sec, elapsed time      0.00 sec (  31.9 MFLOP/sec)
 Total CPU time                               0.02 sec, elapsed time      0.02 sec

 SCS-MP2 correlation energy:           -0.217173956258   (PS=  1.200000  PT=  0.333333)
 SCS-MP2 total energy:                -76.252980001222

 Norm of first-order wave function:     0.045156397940
 Coefficient of reference function:     0.978158781689

  Reference energy                    -76.035806044964
  MP2 singlet pair energy              -0.137123928451
  MP2 triplet pair energy              -0.084576281973
  MP2 correlation energy               -0.221700210424

 !MP2 total energy                    -76.257506255388


 **********************************************************************************************************************************
 DATASETS  * FILE   NREC   LENGTH (MB)   RECORD NAMES
              1      18       28.68       500      610      700      900      950      970     1000      129      960     1100   
                                          VAR    BASINP    GEOM    SYMINP    ZMAT    AOBASIS   BASIS     P2S    ABASIS      S 
                                         1400     1410     1200     1210     1080     1600     1650     1700   
                                           T        V       H0       H01     AOSYM     SMH    MOLCAS    OPER   

              2       4        0.44       700     1000      520     2100   
                                         GEOM     BASIS   MCVARS     RHF  

 PROGRAMS   *        TOTAL    DF-MP2     DF-HF       INT
 CPU TIMES  *         2.05      0.06      0.08      1.65
 REAL TIME  *         3.83 SEC
 DISK USED  *        29.30 MB (local),      351.60 MB (total)
 SF USED    *         1.10 MB
 GA USED    *         1.53 MB       (max)       0.00 MB       (current)
 **********************************************************************************************************************************

 DF-MP2/aug-cc-pVDZ energy=    -76.257506255388

          DF-MP2           DF-HF
    -76.25750626    -76.03580604
 **********************************************************************************************************************************
 Molpro calculation terminated
