
 Working directory              : /scratch/st_ac135682.16602210/molpro.BFvac78U77/
 Global scratch directory       : /scratch/st_ac135682.16602210/molpro.BFvac78U77/
 Wavefunction directory         : /home/st/st_us-031401/st_ac135682/wfu/
 Main file repository           : /scratch/st_ac135682.16602210/molpro.BFvac78U77/

 id        : uulm

 Nodes     nprocs
 n1702       12
 GA implementation: MPI file
 GA implementation (serial work in mppx): MPI file

 Using customized tuning parameters: mindgm=1; mindgv=20; mindgc=4; mindgr=1; noblas=0; minvec=7
 default implementation of scratch files=sf  


 Variables initialized (1042), CPU time= 0.01 sec
 GPRINT,ORBITALS
 NOSYM
 ANGSTROM
 GEOMETRY=initial.xyz
 Including file /lustre/home/st/st_us-031401/st_ac135682/codes/helpro/examples/molpro.2024.1/0.1_python/DF-MP2/aug-cc-pVDZ/active/00000/initial.xyz
 BASIS=aug-cc-pVDZ
 {DF-HF}
 {DF-MP2;CORE}
 Commands initialized (847), CPU time= 0.02 sec, 718 directives.
 Default parameters read. Elapsed time= 0.18 sec

 Checking input...
 Passed
1


                                         ***  PROGRAM SYSTEM MOLPRO  ***
                                       Copyright, TTI GmbH Stuttgart, 2015
                                    Version 2024.1 linked Wed Jan 31 11:42:09 2024


 **********************************************************************************************************************************
 LABEL *                                                                                                                                                                 
  64 bit mpp version                                                                     DATE: 06-Mar-25          TIME: 23:28:15  
 **********************************************************************************************************************************

 SHA1:             675817fde4514a4a933b69e420913a90cee4ef91
 **********************************************************************************************************************************

 Memory per process:      4000 MW
 Total memory per node:  48000 MW

 GA preallocation disabled
 GA check disabled

 Variable memory set to 4000.0 MW


 ZSYMEL=NOSYM
 ZUNIT=ANG


 Geometry recognized as XYZ

 SETTING BASIS          =    AUG-CC-PVDZ


 Recomputing integrals since basis changed


 Using spherical harmonics

 Library entry O      S aug-cc-pVDZ          selected for orbital group  1
 Library entry O      P aug-cc-pVDZ          selected for orbital group  1
 Library entry O      D aug-cc-pVDZ          selected for orbital group  1
 Library entry H      S aug-cc-pVDZ          selected for orbital group  2
 Library entry H      P aug-cc-pVDZ          selected for orbital group  2


 PROGRAM * SEWARD (Integral evaluation for generally contracted gaussian basis sets)     Author: Roland Lindh, 1990

 Geometry written to block  1 of record 700


 Point group  C1  



 ATOMIC COORDINATES

 NR  ATOM    CHARGE       X              Y              Z

   1  O       8.00   -0.000000813   -0.120336475    0.000000000
   2  H       1.00    1.459251824    0.954986911    0.000000000
   3  H       1.00   -1.459238936    0.954996416    0.000000000

 Bond lengths in Bohr (Angstrom)

 1-2  1.812660652  1-3  1.812654607
     ( 0.959218708)     ( 0.959215510)

 Bond angles

  2-1-3  107.22647671

 NUCLEAR CHARGE:                   10
 NUMBER OF PRIMITIVE AOS:          59
 NUMBER OF SYMMETRY AOS:           57
 NUMBER OF CONTRACTIONS:           41   (   41A   )
 NUMBER OF INNER CORE ORBITALS:     0   (    0A   )
 NUMBER OF OUTER CORE ORBITALS:     1   (    1A   )
 NUMBER OF VALENCE ORBITALS:        6   (    6A   )


 NUCLEAR REPULSION ENERGY    9.16946141

 EXTRA SYMMETRY OF AOS IN SYMMETRY 1:   1 1 1 1 1 1 2 1 1 2   1 1 2 1 1 2 1 2 1 1   2 1 2 1 1 1 1 1 2 1   1 2 1 1 1 1 1 2 1 1
                                        2

 Eigenvalues of metric

         1 0.296E-02 0.312E-02 0.115E-01 0.161E-01 0.258E-01 0.360E-01 0.775E-01 0.897E-01


 OPERATOR DM      FOR CENTER  0  COORDINATES:    0.000000    0.000000    0.000000


 **********************************************************************************************************************************
 DATASETS  * FILE   NREC   LENGTH (MB)   RECORD NAMES
              1      18       28.68       500      610      700      900      950      970     1000      129      960     1100   
                                          VAR    BASINP    GEOM    SYMINP    ZMAT    AOBASIS   BASIS     P2S    ABASIS      S 
                                         1400     1410     1200     1210     1080     1600     1650     1700   
                                           T        V       H0       H01     AOSYM     SMH    MOLCAS    OPER   

 PROGRAMS   *        TOTAL       INT
 CPU TIMES  *         1.97      1.76
 REAL TIME  *         3.57 SEC
 DISK USED  *        29.03 MB (local),      348.38 MB (total)
 GA USED    *         0.00 MB       (max)       0.00 MB       (current)
 **********************************************************************************************************************************


 Program * Restricted Hartree-Fock

 Basis set AVDZ/JKFIT generated.         Number of basis functions:   150 
 Coulomb and exchange fitting
 Thresholds for fitting:       THRAO_COUL= 1.0D-15    THRAO_EXCH= 1.0D-13    THRMO= 1.0D-12    THRPROD= 1.0D-12    THRASM= 1.0D-12
                               THR2HLF=    1.0D-12

 Basis set AVDZ-JKFIT loaded. Number of basis functions: 150

 Orbital guess generated from atomic densities. Full valence occupancy:    7
 Using density fitting in orbital guess


 Initial occupancy:   5

 NELEC=   10   SYM=1   MS2= 0   THRE=1.0D-08   THRD=3.2D-06   THRG=3.2D-06  HFMA2=F  DIIS_START=2   DIIS_MAX=10   DIIS_INCORE=F

 Level shifts:    0.00 (CLOSED)    0.00 (OPEN)    0.30 (GAP_MIN)

 ITER           ETOT              DE          GRAD        DDIFF     DIIS  NEXP   TIME(IT)  TIME(TOT)  DIAG
   1      -76.00472466     -76.00472466     0.00D+00     0.15D+00     0     0       0.01      0.03    start
   2      -76.03089552      -0.02617086     0.15D-01     0.26D-01     1     0       0.00      0.03    diag
   3      -76.04102175      -0.01012623     0.91D-02     0.91D-02     2     0       0.01      0.04    diag
   4      -76.04120574      -0.00018399     0.91D-03     0.14D-02     3     0       0.01      0.05    diag
   5      -76.04122048      -0.00001474     0.23D-03     0.40D-03     4     0       0.00      0.05    diag
   6      -76.04122117      -0.00000069     0.39D-04     0.77D-04     5     0       0.01      0.06    diag
   7      -76.04122120      -0.00000003     0.69D-05     0.17D-04     6     0       0.00      0.06    diag
   8      -76.04122120      -0.00000000     0.13D-05     0.31D-05     7     0       0.01      0.07    fixocc
   9      -76.04122120      -0.00000000     0.16D-06     0.24D-06     0     0       0.00      0.07    diag

 Final occupancy:   5

 !RHF STATE 1.1 Energy                -76.041221200166
  RHF One-electron energy            -122.937668358412
  RHF Two-electron energy              37.726985750570
  RHF Kinetic energy                   75.915576399045
  RHF Nuclear energy                    9.169461407676
  RHF Virial quotient                  -1.001655059569

 !RHF STATE 1.1 Dipole moment           0.00000465     0.76931065    -0.00000000
 Dipole moment /Debye                   0.00001181     1.95539263    -0.00000000

 ELECTRON ORBITALS
 =================

  Orbital  Occupation    Energy    Cen Mu Typ  Coefficients
    1.1     2.00000   -20.57634     1  1  s    1.00096
    2.1     2.00000    -1.35368     1  2  s    0.88202    2  1  s    0.34712    3  1  s    0.34713
    3.1     2.00000    -0.72343     1  1  px   0.72561    2  1  s    0.59882    3  1  s   -0.59882
    4.1     2.00000    -0.57992     1  2  s   -0.29075    1  1  py   0.80444    2  1  s    0.35391    3  1  s    0.35391
    5.1     2.00000    -0.50848     1  1  pz   0.91541


 HOMO      5.1    -0.508476 =     -13.8363eV
 LUMO      6.1     0.035645 =       0.9700eV
 LUMO-HOMO         0.544121 =      14.8063eV

 Orbitals saved in record  2100.2


 **********************************************************************************************************************************
 DATASETS  * FILE   NREC   LENGTH (MB)   RECORD NAMES
              1      18       28.68       500      610      700      900      950      970     1000      129      960     1100   
                                          VAR    BASINP    GEOM    SYMINP    ZMAT    AOBASIS   BASIS     P2S    ABASIS      S 
                                         1400     1410     1200     1210     1080     1600     1650     1700   
                                           T        V       H0       H01     AOSYM     SMH    MOLCAS    OPER   

              2       4        0.44       700     1000      520     2100   
                                         GEOM     BASIS   MCVARS     RHF  

 PROGRAMS   *        TOTAL     DF-HF       INT
 CPU TIMES  *         2.06      0.09      1.76
 REAL TIME  *         3.74 SEC
 DISK USED  *        29.29 MB (local),      351.52 MB (total)
 SF USED    *         0.33 MB
 GA USED    *         0.00 MB       (max)       0.00 MB       (current)
 **********************************************************************************************************************************


 PROGRAM * MP2 (Closed-shell)     Authors: C. Hampel, H.-J. Werner, 1991, M. Deegan, P.J. Knowles, 1992


 Basis set AUG-CC-PVDZ/MP2FIT generated. Number of basis functions:   118 

 Convergence thresholds:  THRVAR = 1.00D-08  THRDEN = 1.00D-06

 Number of closed-shell orbitals:   5 (   5 )
 Number of external orbitals:      36 (  36 )

 Molecular orbitals read from record     2100.2  Type=RHF/CANONICAL  


 Entering DF-MP2

 Thresholds:    THRAO= 0.100D-13    THRMO= 0.100D-13    THROV= 0.100D-13

 Fitting basis: AUG-CC-PVDZ-MP2FIT
 Number of fitting functions:                 118
 Number of blocks in AO basis:                  1
 Minimum block size:                           41
 Maximum block size:                           41
 Average block size:                           41
 Number of groups in AO basis:                 14
 Number of shells in AO basis:                 31

 Using large memory version DFMP2B. NIBTK= 1  NGPU= 0  IGPU= 0

 para=T  nprocs= 12  mpptyp=0  number of tasks=  20

 Minimum memory with paging:                  0.68 MW
 Minimum memory for incore assembly:          0.68 MW
 Maximum memory for incore algorithm:         0.70 MW
 Memory for 3-index integrals:                0.00 MW

 Disk space for H1-integrals:                 0.20 MB (   100 records)

 CPU time for half transformed integrals      0.01 sec, elapsed time      0.01 sec
 CPU time for assembly                        0.00 sec, elapsed time      0.00 sec (  31.9 MFLOP/sec)
 Total CPU time                               0.01 sec, elapsed time      0.03 sec

 SCS-MP2 correlation energy:           -0.217030319604   (PS=  1.200000  PT=  0.333333)
 SCS-MP2 total energy:                -76.258251519770

 Norm of first-order wave function:     0.043694416784
 Coefficient of reference function:     0.978843632178

  Reference energy                    -76.041221200166
  MP2 singlet pair energy              -0.136735825355
  MP2 triplet pair energy              -0.085093921893
  MP2 correlation energy               -0.221829747248

 !MP2 total energy                    -76.263050947414


 **********************************************************************************************************************************
 DATASETS  * FILE   NREC   LENGTH (MB)   RECORD NAMES
              1      18       28.68       500      610      700      900      950      970     1000      129      960     1100   
                                          VAR    BASINP    GEOM    SYMINP    ZMAT    AOBASIS   BASIS     P2S    ABASIS      S 
                                         1400     1410     1200     1210     1080     1600     1650     1700   
                                           T        V       H0       H01     AOSYM     SMH    MOLCAS    OPER   

              2       4        0.44       700     1000      520     2100   
                                         GEOM     BASIS   MCVARS     RHF  

 PROGRAMS   *        TOTAL    DF-MP2     DF-HF       INT
 CPU TIMES  *         2.15      0.09      0.09      1.76
 REAL TIME  *         3.86 SEC
 DISK USED  *        29.29 MB (local),      351.52 MB (total)
 SF USED    *         1.01 MB
 GA USED    *         1.53 MB       (max)       0.00 MB       (current)
 **********************************************************************************************************************************

 DF-MP2/aug-cc-pVDZ energy=    -76.263050947414

          DF-MP2           DF-HF
    -76.26305095    -76.04122120
 **********************************************************************************************************************************
 Molpro calculation terminated
